;COSTA ET AL. 2016 -- Aggregation of model asphaltenes – a Molecular Dynamics study  -- 
;SUPPLEMENTARY MATERIAL
;topology for HTBHBC asphaltene
[ moleculetype ]
; Name            nrexcl
HTBHBC             3

[ atoms ]
;   nr       type  resnr residue  atom   cgnr     charge       mass  typeB    chargeB      massB
        1  opls_135   1   HTB      C1    1   -0.180     12.011   
        2  opls_140   1   HTB      H1    1   0.060     1.008   
        3  opls_140   1   HTB      H2    1   0.060     1.008   
        4  opls_140   1   HTB      H3    1   0.060     1.008   
        5  opls_139   1   HTB      C2    2   0.000     12.011   
        6  opls_135   1   HTB      C3    3   -0.180     12.011   
        7  opls_140   1   HTB      H4    3   0.060     1.008   
        8  opls_140   1   HTB      H5    3   0.060     1.008   
        9  opls_140   1   HTB      H6    3   0.060     1.008   
       10  opls_135   1   HTB      C4    4   -0.180     12.011   
       11  opls_140   1   HTB      H7    4   0.060     1.008   
       12  opls_140   1   HTB      H8    4   0.060     1.008   
       13  opls_140   1   HTB      H9    4   0.060     1.008   
       14  opls_147   1   HTB      C5    5   0.000     12.011   
       15  opls_145   1   HTB      C6    6   -0.115     12.011   
       16  opls_146   1   HTB      H10    6   0.115     1.008   
       17  opls_147   1   HTB      C7    7   0.00000     12.011   
       18  opls_147   1   HTB      C8    8   0.00000     12.011   
       19  opls_147   1   HTB      C9    9   0.00000     12.011   
       20  opls_147   1   HTB      C10    10   0.00000     12.011   
       21  opls_147   1   HTB      C11    11   0.00000     12.011   
       22  opls_147   1   HTB      C12    12   0.00000     12.011   
       23  opls_145   1   HTB      C13    13   -0.115     12.011   
       24  opls_146   1   HTB      H11    13   0.115     1.008   
       25  opls_147   1   HTB      C14    14   0.00000     12.011   
       26  opls_139   1   HTB      C15    15   0.00000     12.011   
       27  opls_135   1   HTB      C16    16   -0.180     12.011   
       28  opls_140   1   HTB      H12    16   0.060     1.008   
       29  opls_140   1   HTB      H13    16   0.060     1.008   
       30  opls_140   1   HTB      H14    16   0.060     1.008   
       31  opls_135   1   HTB      C17    17   -0.180     12.011   
       32  opls_140   1   HTB      H15    17   0.060     1.008   
       33  opls_140   1   HTB      H16    17   0.060     1.008   
       34  opls_140   1   HTB      H17    17   0.060     1.008   
       35  opls_135   1   HTB      C18    18   -0.180     12.011   
       36  opls_140   1   HTB      H18    18   0.060     1.008   
       37  opls_140   1   HTB      H19    18   0.060     1.008   
       38  opls_140   1   HTB      H20    18   0.060     1.008   
       39  opls_145   1   HTB      C19    19   -0.115     12.011   
       40  opls_146   1   HTB      H21    19   0.115     1.008   
       41  opls_147   1   HTB      C20    20   0.00000     12.011   
       42  opls_147   1   HTB      C21    21   0.00000     12.011   
       43  opls_145   1   HTB      C22    22   -0.115     12.011   
       44  opls_146   1   HTB      H22    22   0.115     1.008   
       45  opls_147   1   HTB      C23    23   0.00000     12.011   
       46  opls_139   1   HTB      C24    24   0.00000     12.011   
       47  opls_135   1   HTB      C25    25   -0.180     12.011   
       48  opls_140   1   HTB      H23    25   0.060     1.008   
       49  opls_140   1   HTB      H24    25   0.060     1.008   
       50  opls_140   1   HTB      H25    25   0.060     1.008   
       51  opls_135   1   HTB      C26    26   -0.180     12.011   
       52  opls_140   1   HTB      H26    26   0.060     1.008   
       53  opls_140   1   HTB      H27    26   0.060     1.008   
       54  opls_140   1   HTB      H28    26   0.060     1.008   
       55  opls_135   1   HTB      C27    27   -0.180     12.011   
       56  opls_140   1   HTB      H29    27   0.060     1.008   
       57  opls_140   1   HTB      H30    27   0.060     1.008   
       58  opls_140   1   HTB      H31    27   0.060     1.008   
       59  opls_145   1   HTB      C28    28   -0.115     12.011   
       60  opls_146   1   HTB      H32    28   0.115     1.008   
       61  opls_147   1   HTB      C29    29   0.00000     12.011   
       62  opls_147   1   HTB      C30    30   0.00000     12.011   
       63  opls_147   1   HTB      C31    31   0.00000     12.011   
       64  opls_147   1   HTB      C32    32   0.00000     12.011   
       65  opls_147   1   HTB      C33    33   0.00000     12.011   
       66  opls_147   1   HTB      C34    34   0.00000     12.011   
       67  opls_147   1   HTB      C35    35   -0.115     12.011   
       68  opls_146   1   HTB      H33    35   0.115     1.008   
       69  opls_147   1   HTB      C36    36   0.00000     12.011   
       70  opls_139   1   HTB      C37    37   0.00000     12.011   
       71  opls_135   1   HTB      C38    38   -0.180     12.011   
       72  opls_140   1   HTB      H34    38   0.060     1.008   
       73  opls_140   1   HTB      H35    38   0.060     1.008   
       74  opls_140   1   HTB      H36    38   0.060     1.008   
       75  opls_135   1   HTB      C39    39   -0.180     12.011   
       76  opls_140   1   HTB      H37    39   0.060     1.008   
       77  opls_140   1   HTB      H38    39   0.060     1.008   
       78  opls_140   1   HTB      H39    39   0.060     1.008   
       79  opls_135   1   HTB      C40    40   -0.180     12.011   
       80  opls_140   1   HTB      H40    40   0.060     1.008   
       81  opls_140   1   HTB      H41    40   0.060     1.008   
       82  opls_140   1   HTB      H42    40   0.060     1.008   
       83  opls_145   1   HTB      C41    41   -0.115     12.011   
       84  opls_146   1   HTB      H43    41   0.115     1.008   
       85  opls_147   1   HTB      C42    42   0.00000     12.011   
       86  opls_147   1   HTB      C43    43   0.00000     12.011   
       87  opls_145   1   HTB      C44    44   -0.115     12.011   
       88  opls_146   1   HTB      H44    44   0.115     1.008   
       89  opls_147   1   HTB      C45    45   0.00000     12.011   
       90  opls_139   1   HTB      C46    46   0.00000     12.011   
       91  opls_135   1   HTB      C47    47   -0.180     12.011   
       92  opls_140   1   HTB      H45    47   0.060     1.008   
       93  opls_140   1   HTB      H46    47   0.060     1.008   
       94  opls_140   1   HTB      H47    47   0.060     1.008   
       95  opls_135   1   HTB      C48    48   -0.180     12.011   
       96  opls_140   1   HTB      H48    48   0.060     1.008   
       97  opls_140   1   HTB      H49    48   0.060     1.008   
       98  opls_140   1   HTB      H50    48   0.060     1.008   
       99  opls_135   1   HTB      C49    49   -0.180     12.011   
      100  opls_140   1   HTB      H51    49   0.060     1.008   
      101  opls_140   1   HTB      H52    49   0.060     1.008   
      102  opls_140   1   HTB      H53    49   0.060     1.008   
      103  opls_145   1   HTB      C50    50   -0.115     12.011   
      104  opls_146   1   HTB      H54    50   0.115     1.008   
      105  opls_147   1   HTB      C51    51   0.00000     12.011   
      106  opls_147   1   HTB      C52    52   0.00000     12.011   
      107  opls_147   1   HTB      C53    53   0.00000     12.011   
      108  opls_147   1   HTB      C54    54   0.00000     12.011   
      109  opls_147   1   HTB      C55    55   0.00000     12.011   
      110  opls_147   1   HTB      C56    56   0.00000     12.011   
      111  opls_147   1   HTB      C57    57   -0.115     12.011   
      112  opls_146   1   HTB      H55    57   0.115     1.008   
      113  opls_147   1   HTB      C58    58   0.00000     12.011   
      114  opls_139   1   HTB      C59    59   0.00000     12.011   
      115  opls_135   1   HTB      C60    60   -0.180     12.011   
      116  opls_140   1   HTB      H56    60   0.060     1.008   
      117  opls_140   1   HTB      H57    60   0.060     1.008   
      118  opls_140   1   HTB      H58    60   0.060     1.008   
      119  opls_135   1   HTB      C61    61   -0.180     12.011   
      120  opls_140   1   HTB      H59    61   0.060     1.008   
      121  opls_140   1   HTB      H60    61   0.060     1.008   
      122  opls_140   1   HTB      H61    61   0.060     1.008   
      123  opls_135   1   HTB      C62    62   -0.180     12.011   
      124  opls_140   1   HTB      H62    62   0.060     1.008   
      125  opls_140   1   HTB      H63    62   0.060     1.008   
      126  opls_140   1   HTB      H64    62   0.060     1.008   
      127  opls_145   1   HTB      C63    63   -0.115     12.011   
      128  opls_146   1   HTB      H65    63   0.115     1.008   
      129  opls_147   1   HTB      C64    64   0.00000     12.011   
      130  opls_147   1   HTB      C65    65   0.00000     12.011   
      131  opls_145   1   HTB      C66    66   -0.115     12.011   
      132  opls_146   1   HTB      H66    66   0.115     1.008   




[ bonds ]
1 2 1   0.109  284512.0
1 3 1   0.109  284512.0
1 4 1   0.109  284512.0
1 5 1   0.154  224262.4
5 6 1   0.155  224262.4
5 10 1   0.153  224262.4
5 14 1   0.144  265265.6
6 7 1   0.109  284512.0
6 8 1   0.109  284512.0
6 9 1   0.109  284512.0
10 11 1   0.109  284512.0
10 12 1   0.109  284512.0
10 13 1   0.109  284512.0
14 15 1   0.142  392459.2
14 131 1   0.141  392459.2
15 16 1   0.108  307105.6
15 17 1   0.142  392459.2
17 18 1   0.143  392459.2
17 22 1   0.142  392459.2
18 19 1   0.142  392459.2
18 130 1   0.142  392459.2
19 20 1   0.142  392459.2
19 108 1   0.141  392459.2
20 21 1   0.143  392459.2
20 63 1   0.142  392459.2
21 22 1   0.142  392459.2
21 41 1   0.142  392459.2
22 23 1   0.141  392459.2
23 24 1   0.109  307105.6
23 25 1   0.141  392459.2
25 26 1   0.144  265265.6
25 39 1   0.141  392459.2
26 27 1   0.154  224262.4
26 31 1   0.154  224262.4
26 35 1   0.154  224262.4
27 28 1   0.109  284512.0
27 29 1   0.109  284512.0
27 30 1   0.109  284512.0
31 32 1   0.109  284512.0
31 33 1   0.109  284512.0
31 34 1   0.109  284512.0
35 36 1   0.109  284512.0
35 37 1   0.109  284512.0
35 38 1   0.109  284512.0
39 40 1   0.109  307105.6
39 41 1   0.142  392459.2
41 42 1   0.142  392459.2
42 43 1   0.142  392459.2
42 62 1   0.142  392459.2
43 44 1   0.109  307105.6
43 45 1   0.140  392459.2
45 46 1   0.145  265265.6
45 59 1   0.140  392459.2
46 47 1   0.154  224262.4
46 51 1   0.153  224262.4
46 55 1   0.154  224262.4
47 48 1   0.109  284512.0
47 49 1   0.109  284512.0
47 50 1   0.109  284512.0
51 52 1   0.109  284512.0
51 53 1   0.109  284512.0
51 54 1   0.109  284512.0
55 56 1   0.109  284512.0
55 57 1   0.109  284512.0
55 58 1   0.109  284512.0
59 60 1   0.109  307105.6
59 61 1   0.141  392459.2
61 62 1   0.142  392459.2
61 66 1   0.142  392459.2
62 63 1   0.142  392459.2
63 64 1   0.141  392459.2
64 65 1   0.142  392459.2
64 107 1   0.142  392459.2
65 66 1   0.142  392459.2
65 85 1   0.143  392459.2
66 67 1   0.142  392459.2
67 68 1   0.108  307105.6
67 69 1   0.141  392459.2
69 70 1   0.144  265265.6
69 83 1   0.142  392459.2
70 71 1   0.154  224262.4
70 75 1   0.154  224262.4
70 79 1   0.154  224262.4
71 72 1   0.109  284512.0
71 73 1   0.109  284512.0
71 74 1   0.109  284512.0
75 76 1   0.109  284512.0
75 77 1   0.109  284512.0
75 78 1   0.109  284512.0
79 80 1   0.109  284512.0
79 81 1   0.109  284512.0
79 82 1   0.109  284512.0
83 84 1   0.108  307105.6
83 85 1   0.142  392459.2
85 86 1   0.142  392459.2
86 87 1   0.142  392459.2
86 106 1   0.142  392459.2
87 88 1   0.108  307105.6
87 89 1   0.141  392459.2
89 90 1   0.144  265265.6
89 103 1   0.142  392459.2
90 91 1   0.154  224262.4
90 95 1   0.154  224262.4
90 99 1   0.155  224262.4
91 92 1   0.109  284512.0
91 93 1   0.109  284512.0
91 94 1   0.109  284512.0
95 96 1   0.109  284512.0
95 97 1   0.109  284512.0
95 98 1   0.109  284512.0
99 100 1   0.109  284512.0
99 101 1   0.109  284512.0
99 102 1   0.109  284512.0
103 104 1   0.108  307105.6
103 105 1   0.142  392459.2
105 106 1   0.142  392459.2
105 110 1   0.142  392459.2
106 107 1   0.142  392459.2
107 108 1   0.142  392459.2
108 109 1   0.142  392459.2
109 110 1   0.143  392459.2
109 129 1   0.142  392459.2
110 111 1   0.142  392459.2
111 112 1   0.109  307105.6
111 113 1   0.140  392459.2
113 114 1   0.145  265265.6
113 127 1   0.140  392459.2
114 115 1   0.154  224262.4
114 119 1   0.154  224262.4
114 123 1   0.154  224262.4
115 116 1   0.109  284512.0
115 117 1   0.109  284512.0
115 118 1   0.109  284512.0
119 120 1   0.109  284512.0
119 121 1   0.109  284512.0
119 122 1   0.109  284512.0
123 124 1   0.109  284512.0
123 125 1   0.109  284512.0
123 126 1   0.109  284512.0
127 128 1   0.109  307105.6
127 129 1   0.141  392459.2
129 130 1   0.143  392459.2
130 131 1   0.141  392459.2
131 132 1   0.109  307105.6


[ angles ]
1 5 6 1  101.312  488.273
1 5 10 1  106.839  488.273
1 5 14 1  116.061  527.184
2 1 3 1  109.426  276.144
2 1 4 1  111.607  276.144
2 1 5 1  109.489  313.800
3 1 4 1  111.643  276.144
3 1 5 1  109.490  313.800
4 1 5 1  105.081  313.800
5 6 7 1  109.510  313.800
5 6 8 1  109.457  313.800
5 6 9 1  105.055  313.800
5 10 11 1  109.504  313.800
5 10 12 1  109.471  313.800
5 10 13 1  105.194  313.800
5 14 15 1  122.395  585.760
5 14 131 1  122.728  585.760
6 5 10 1  106.553  488.273
6 5 14 1  115.737  527.184
7 6 8 1  109.491  276.144
7 6 9 1  111.627  276.144
8 6 9 1  111.593  276.144
10 5 14 1  109.504  527.184
11 10 12 1  109.420  276.144
11 10 13 1  111.563  276.144
12 10 13 1  111.590  276.144
14 15 16 1  116.372  292.880
14 15 17 1  123.917  527.184
14 131 130 1  124.320  527.184
14 131 132 1  115.759  292.880
15 14 131 1  114.863  527.184
15 17 18 1  118.335  527.184
15 17 22 1  121.649  527.184
16 15 17 1  118.203  292.880
17 18 19 1  119.942  527.184
17 18 130 1  119.658  527.184
17 22 21 1  120.047  527.184
17 22 23 1  121.618  527.184
18 17 22 1  120.002  527.184
18 19 20 1  120.043  527.184
18 19 108 1  119.794  527.184
18 130 129 1  119.654  527.184
18 130 131 1  118.756  527.184
19 18 130 1  120.398  527.184
19 20 21 1  120.014  527.184
19 20 63 1  120.050  527.184
19 108 107 1  120.197  527.184
19 108 109 1  120.356  527.184
20 19 108 1  120.157  527.184
20 21 22 1  119.939  527.184
20 21 41 1  120.011  527.184
20 63 62 1  119.851  527.184
20 63 64 1  119.794  527.184
21 20 63 1  119.935  527.184
21 22 23 1  118.333  527.184
21 41 39 1  118.347  527.184
21 41 42 1  120.045  527.184
22 21 41 1  120.048  527.184
22 23 24 1  118.374  292.880
22 23 25 1  124.285  527.184
23 25 26 1  122.622  585.760
23 25 39 1  114.420  527.184
24 23 25 1  115.829  292.880
25 26 27 1  115.962  527.184
25 26 31 1  108.926  527.184
25 26 35 1  116.140  527.184
25 39 40 1  115.542  292.880
25 39 41 1  124.395  527.184
26 25 39 1  122.958  585.760
26 27 28 1  109.511  313.800
26 27 29 1  109.452  313.800
26 27 30 1  105.141  313.800
26 31 32 1  109.524  313.800
26 31 33 1  109.467  313.800
26 31 34 1  105.113  313.800
26 35 36 1  109.508  313.800
26 35 37 1  109.462  313.800
26 35 38 1  105.140  313.800
27 26 31 1  106.358  488.273
27 26 35 1  101.990  488.273
28 27 29 1  109.459  276.144
28 27 30 1  111.564  276.144
29 27 30 1  111.611  276.144
31 26 35 1  106.642  488.273
32 31 33 1  109.423  276.144
32 31 34 1  111.591  276.144
33 31 34 1  111.620  276.144
36 35 37 1  109.457  276.144
36 35 38 1  111.598  276.144
37 35 38 1  111.574  276.144
39 41 42 1  121.608  527.184
40 39 41 1  118.546  292.880
41 42 43 1  121.860  527.184
41 42 62 1  120.133  527.184
42 43 44 1  118.262  292.880
42 43 45 1  124.226  527.184
42 62 61 1  120.143  527.184
42 62 63 1  120.009  527.184
43 42 62 1  118.000  527.184
43 45 46 1  122.621  585.760
43 45 59 1  115.134  527.184
44 43 45 1  116.193  292.880
45 46 47 1  115.896  527.184
45 46 51 1  108.966  527.184
45 46 55 1  115.795  527.184
45 59 60 1  116.648  292.880
45 59 61 1  124.078  527.184
46 45 59 1  122.239  585.760
46 47 48 1  109.486  313.800
46 47 49 1  109.443  313.800
46 47 50 1  105.094  313.800
46 51 52 1  109.499  313.800
46 51 53 1  109.466  313.800
46 51 54 1  105.147  313.800
46 55 56 1  109.498  313.800
46 55 57 1  109.432  313.800
46 55 58 1  105.108  313.800
47 46 51 1  107.057  488.273
47 46 55 1  101.457  488.273
48 47 49 1  109.461  276.144
48 47 50 1  111.595  276.144
49 47 50 1  111.657  276.144
51 46 55 1  106.941  488.273
52 51 53 1  109.466  276.144
52 51 54 1  111.580  276.144
53 51 54 1  111.581  276.144
56 55 57 1  109.434  276.144
56 55 58 1  111.625  276.144
57 55 58 1  111.639  276.144
59 61 62 1  118.218  527.184
59 61 66 1  122.191  527.184
60 59 61 1  117.858  292.880
61 62 63 1  119.848  527.184
61 66 65 1  120.330  527.184
61 66 67 1  121.226  527.184
62 61 66 1  119.584  527.184
62 63 64 1  120.356  527.184
63 64 65 1  119.795  527.184
63 64 107 1  120.356  527.184
64 65 66 1  120.045  527.184
64 65 85 1  119.940  527.184
64 107 106 1  120.002  527.184
64 107 108 1  119.447  527.184
65 64 107 1  119.848  527.184
65 66 67 1  118.442  527.184
65 85 83 1  118.289  527.184
65 85 86 1  120.005  527.184
66 65 85 1  120.009  527.184
66 67 68 1  118.257  292.880
66 67 69 1  124.280  527.184
67 69 70 1  123.115  585.760
67 69 83 1  114.868  527.184
68 67 69 1  115.780  292.880
69 70 71 1  116.250  527.184
69 70 75 1  108.991  527.184
69 70 79 1  115.735  527.184
69 83 84 1  115.990  292.880
69 83 85 1  123.975  527.184
70 69 83 1  122.002  585.760
70 71 72 1  109.504  313.800
70 71 73 1  109.437  313.800
70 71 74 1  105.153  313.800
70 75 76 1  109.523  313.800
70 75 77 1  109.444  313.800
70 75 78 1  105.122  313.800
70 79 80 1  109.500  313.800
70 79 81 1  109.439  313.800
70 79 82 1  105.079  313.800
71 70 75 1  106.847  488.273
71 70 79 1  101.735  488.273
72 71 73 1  109.442  276.144
72 71 74 1  111.610  276.144
73 71 74 1  111.591  276.144
75 70 79 1  106.484  488.273
76 75 77 1  109.435  276.144
76 75 78 1  111.611  276.144
77 75 78 1  111.603  276.144
80 79 81 1  109.452  276.144
80 79 82 1  111.628  276.144
81 79 82 1  111.636  276.144
83 85 86 1  121.681  527.184
84 83 85 1  118.324  292.880
85 86 87 1  121.627  527.184
85 86 106 1  120.003  527.184
86 87 88 1  118.337  292.880
86 87 89 1  124.187  527.184
86 106 105 1  119.851  527.184
86 106 107 1  120.146  527.184
87 86 106 1  118.354  527.184
87 89 90 1  123.478  585.760
87 89 103 1  114.883  527.184
88 87 89 1  117.030  292.880
89 90 91 1  115.807  527.184
89 90 95 1  109.077  527.184
89 90 99 1  116.648  527.184
89 103 104 1  116.055  292.880
89 103 105 1  123.919  527.184
90 89 103 1  121.484  585.760
90 91 92 1  109.527  313.800
90 91 93 1  109.461  313.800
90 91 94 1  105.112  313.800
90 95 96 1  109.488  313.800
90 95 97 1  109.445  313.800
90 95 98 1  105.074  313.800
90 99 100 1  109.520  313.800
90 99 101 1  109.431  313.800
90 99 102 1  105.040  313.800
91 90 95 1  107.058  488.273
91 90 99 1  101.450  488.273
92 91 93 1  109.482  276.144
92 91 94 1  111.578  276.144
93 91 94 1  111.576  276.144
95 90 99 1  105.934  488.273
96 95 97 1  109.454  276.144
96 95 98 1  111.648  276.144
97 95 98 1  111.624  276.144
100 99 101 1  109.460  276.144
100 99 102 1  111.644  276.144
101 99 102 1  111.638  276.144
103 105 106 1  118.548  527.184
103 105 110 1  121.602  527.184
104 103 105 1  118.152  292.880
105 106 107 1  120.002  527.184
105 110 109 1  119.937  527.184
105 110 111 1  122.394  527.184
106 105 110 1  119.848  527.184
106 107 108 1  120.549  527.184
107 108 109 1  119.447  527.184
108 109 110 1  120.201  527.184
108 109 129 1  119.851  527.184
109 110 111 1  117.662  527.184
109 129 127 1  118.237  527.184
109 129 130 1  119.922  527.184
110 109 129 1  119.942  527.184
110 111 112 1  118.107  292.880
110 111 113 1  124.801  527.184
111 113 114 1  123.167  585.760
111 113 127 1  114.829  527.184
112 111 113 1  116.963  292.880
113 114 115 1  115.720  527.184
113 114 119 1  109.564  527.184
113 114 123 1  116.483  527.184
113 127 128 1  116.756  292.880
113 127 129 1  124.311  527.184
114 113 127 1  121.803  585.760
114 115 116 1  109.502  313.800
114 115 117 1  109.436  313.800
114 115 118 1  105.109  313.800
114 119 120 1  109.494  313.800
114 119 121 1  109.448  313.800
114 119 122 1  105.092  313.800
114 123 124 1  109.494  313.800
114 123 125 1  109.450  313.800
114 123 126 1  105.083  313.800
115 114 119 1  106.622  488.273
115 114 123 1  101.320  488.273
116 115 117 1  109.454  276.144
116 115 118 1  111.603  276.144
117 115 118 1  111.632  276.144
119 114 123 1  106.223  488.273
120 119 121 1  109.481  276.144
120 119 122 1  111.605  276.144
121 119 122 1  111.613  276.144
124 123 125 1  109.470  276.144
124 123 126 1  111.657  276.144
125 123 126 1  111.580  276.144
127 129 130 1  121.841  527.184
128 127 129 1  117.417  292.880
129 130 131 1  121.582  527.184
130 131 132 1  118.561  292.880


[ dihedrals ]
2 1 5 6 3
3 1 5 6 3
4 1 5 6 3
2 1 5 10 3
3 1 5 10 3
4 1 5 10 3
2 1 5 14 3
3 1 5 14 3
4 1 5 14 3
1 5 6 7 3
10 5 6 7 3
14 5 6 7 3
1 5 6 8 3
10 5 6 8 3
14 5 6 8 3
1 5 6 9 3
10 5 6 9 3
14 5 6 9 3
1 5 10 11 3
6 5 10 11 3
14 5 10 11 3
1 5 10 12 3
6 5 10 12 3
14 5 10 12 3
1 5 10 13 3
6 5 10 13 3
14 5 10 13 3
1 5 14 15 3
6 5 14 15 3
10 5 14 15 3
1 5 14 131 3
6 5 14 131 3
10 5 14 131 3
5 14 15 16 3
131 14 15 16 3
5 14 15 17 3
131 14 15 17 3
5 14 131 130 3
15 14 131 130 3
5 14 131 132 3
15 14 131 132 3
14 15 17 18 3
16 15 17 18 3
14 15 17 22 3
16 15 17 22 3
15 17 18 19 3
22 17 18 19 3
15 17 18 130 3
22 17 18 130 3
15 17 22 21 3
18 17 22 21 3
15 17 22 23 3
18 17 22 23 3
17 18 19 20 3
130 18 19 20 3
17 18 19 108 3
130 18 19 108 3
17 18 130 129 3
19 18 130 129 3
17 18 130 131 3
19 18 130 131 3
18 19 20 21 3
108 19 20 21 3
18 19 20 63 3
108 19 20 63 3
18 19 108 107 3
20 19 108 107 3
18 19 108 109 3
20 19 108 109 3
19 20 21 22 3
63 20 21 22 3
19 20 21 41 3
63 20 21 41 3
19 20 63 62 3
21 20 63 62 3
19 20 63 64 3
21 20 63 64 3
20 21 22 17 3
41 21 22 17 3
20 21 22 23 3
41 21 22 23 3
20 21 41 39 3
22 21 41 39 3
20 21 41 42 3
22 21 41 42 3
17 22 23 24 3
21 22 23 24 3
17 22 23 25 3
21 22 23 25 3
22 23 25 26 3
24 23 25 26 3
22 23 25 39 3
24 23 25 39 3
23 25 26 27 3
39 25 26 27 3
23 25 26 31 3
39 25 26 31 3
23 25 26 35 3
39 25 26 35 3
23 25 39 40 3
26 25 39 40 3
23 25 39 41 3
26 25 39 41 3
25 26 27 28 3
31 26 27 28 3
35 26 27 28 3
25 26 27 29 3
31 26 27 29 3
35 26 27 29 3
25 26 27 30 3
31 26 27 30 3
35 26 27 30 3
25 26 31 32 3
27 26 31 32 3
35 26 31 32 3
25 26 31 33 3
27 26 31 33 3
35 26 31 33 3
25 26 31 34 3
27 26 31 34 3
35 26 31 34 3
25 26 35 36 3
27 26 35 36 3
31 26 35 36 3
25 26 35 37 3
27 26 35 37 3
31 26 35 37 3
25 26 35 38 3
27 26 35 38 3
31 26 35 38 3
25 39 41 21 3
40 39 41 21 3
25 39 41 42 3
40 39 41 42 3
21 41 42 43 3
39 41 42 43 3
21 41 42 62 3
39 41 42 62 3
41 42 43 44 3
62 42 43 44 3
41 42 43 45 3
62 42 43 45 3
41 42 62 61 3
43 42 62 61 3
41 42 62 63 3
43 42 62 63 3
42 43 45 46 3
44 43 45 46 3
42 43 45 59 3
44 43 45 59 3
43 45 46 47 3
59 45 46 47 3
43 45 46 51 3
59 45 46 51 3
43 45 46 55 3
59 45 46 55 3
43 45 59 60 3
46 45 59 60 3
43 45 59 61 3
46 45 59 61 3
45 46 47 48 3
51 46 47 48 3
55 46 47 48 3
45 46 47 49 3
51 46 47 49 3
55 46 47 49 3
45 46 47 50 3
51 46 47 50 3
55 46 47 50 3
45 46 51 52 3
47 46 51 52 3
55 46 51 52 3
45 46 51 53 3
47 46 51 53 3
55 46 51 53 3
45 46 51 54 3
47 46 51 54 3
55 46 51 54 3
45 46 55 56 3
47 46 55 56 3
51 46 55 56 3
45 46 55 57 3
47 46 55 57 3
51 46 55 57 3
45 46 55 58 3
47 46 55 58 3
51 46 55 58 3
45 59 61 62 3
60 59 61 62 3
45 59 61 66 3
60 59 61 66 3
59 61 62 42 3
66 61 62 42 3
59 61 62 63 3
66 61 62 63 3
59 61 66 65 3
62 61 66 65 3
59 61 66 67 3
62 61 66 67 3
42 62 63 20 3
61 62 63 20 3
42 62 63 64 3
61 62 63 64 3
20 63 64 65 3
62 63 64 65 3
20 63 64 107 3
62 63 64 107 3
63 64 65 66 3
107 64 65 66 3
63 64 65 85 3
107 64 65 85 3
63 64 107 106 3
65 64 107 106 3
63 64 107 108 3
65 64 107 108 3
64 65 66 61 3
85 65 66 61 3
64 65 66 67 3
85 65 66 67 3
64 65 85 83 3
66 65 85 83 3
64 65 85 86 3
66 65 85 86 3
61 66 67 68 3
65 66 67 68 3
61 66 67 69 3
65 66 67 69 3
66 67 69 70 3
68 67 69 70 3
66 67 69 83 3
68 67 69 83 3
67 69 70 71 3
83 69 70 71 3
67 69 70 75 3
83 69 70 75 3
67 69 70 79 3
83 69 70 79 3
67 69 83 84 3
70 69 83 84 3
67 69 83 85 3
70 69 83 85 3
69 70 71 72 3
75 70 71 72 3
79 70 71 72 3
69 70 71 73 3
75 70 71 73 3
79 70 71 73 3
69 70 71 74 3
75 70 71 74 3
79 70 71 74 3
69 70 75 76 3
71 70 75 76 3
79 70 75 76 3
69 70 75 77 3
71 70 75 77 3
79 70 75 77 3
69 70 75 78 3
71 70 75 78 3
79 70 75 78 3
69 70 79 80 3
71 70 79 80 3
75 70 79 80 3
69 70 79 81 3
71 70 79 81 3
75 70 79 81 3
69 70 79 82 3
71 70 79 82 3
75 70 79 82 3
69 83 85 65 3
84 83 85 65 3
69 83 85 86 3
84 83 85 86 3
65 85 86 87 3
83 85 86 87 3
65 85 86 106 3
83 85 86 106 3
85 86 87 88 3
106 86 87 88 3
85 86 87 89 3
106 86 87 89 3
85 86 106 105 3
87 86 106 105 3
85 86 106 107 3
87 86 106 107 3
86 87 89 90 3
88 87 89 90 3
86 87 89 103 3
88 87 89 103 3
87 89 90 91 3
103 89 90 91 3
87 89 90 95 3
103 89 90 95 3
87 89 90 99 3
103 89 90 99 3
87 89 103 104 3
90 89 103 104 3
87 89 103 105 3
90 89 103 105 3
89 90 91 92 3
95 90 91 92 3
99 90 91 92 3
89 90 91 93 3
95 90 91 93 3
99 90 91 93 3
89 90 91 94 3
95 90 91 94 3
99 90 91 94 3
89 90 95 96 3
91 90 95 96 3
99 90 95 96 3
89 90 95 97 3
91 90 95 97 3
99 90 95 97 3
89 90 95 98 3
91 90 95 98 3
99 90 95 98 3
89 90 99 100 3
91 90 99 100 3
95 90 99 100 3
89 90 99 101 3
91 90 99 101 3
95 90 99 101 3
89 90 99 102 3
91 90 99 102 3
95 90 99 102 3
89 103 105 106 3
104 103 105 106 3
89 103 105 110 3
104 103 105 110 3
103 105 106 86 3
110 105 106 86 3
103 105 106 107 3
110 105 106 107 3
103 105 110 109 3
106 105 110 109 3
103 105 110 111 3
106 105 110 111 3
86 106 107 64 3
105 106 107 64 3
86 106 107 108 3
105 106 107 108 3
64 107 108 19 3
106 107 108 19 3
64 107 108 109 3
106 107 108 109 3
19 108 109 110 3
107 108 109 110 3
19 108 109 129 3
107 108 109 129 3
108 109 110 105 3
129 109 110 105 3
108 109 110 111 3
129 109 110 111 3
108 109 129 127 3
110 109 129 127 3
108 109 129 130 3
110 109 129 130 3
105 110 111 112 3
109 110 111 112 3
105 110 111 113 3
109 110 111 113 3
110 111 113 114 3
112 111 113 114 3
110 111 113 127 3
112 111 113 127 3
111 113 114 115 3
127 113 114 115 3
111 113 114 119 3
127 113 114 119 3
111 113 114 123 3
127 113 114 123 3
111 113 127 128 3
114 113 127 128 3
111 113 127 129 3
114 113 127 129 3
113 114 115 116 3
119 114 115 116 3
123 114 115 116 3
113 114 115 117 3
119 114 115 117 3
123 114 115 117 3
113 114 115 118 3
119 114 115 118 3
123 114 115 118 3
113 114 119 120 3
115 114 119 120 3
123 114 119 120 3
113 114 119 121 3
115 114 119 121 3
123 114 119 121 3
113 114 119 122 3
115 114 119 122 3
123 114 119 122 3
113 114 123 124 3
115 114 123 124 3
119 114 123 124 3
113 114 123 125 3
115 114 123 125 3
119 114 123 125 3
113 114 123 126 3
115 114 123 126 3
119 114 123 126 3
113 127 129 109 3
128 127 129 109 3
113 127 129 130 3
128 127 129 130 3
109 129 130 18 3
127 129 130 18 3
109 129 130 131 3
127 129 130 131 3
18 130 131 14 3
129 130 131 14 3
18 130 131 132 3
129 130 131 132 3


[ dihedrals ]
5 15 14 131 1   improper_Z_CA_X_Y
14 16 15 17 1   improper_Z_CA_X_Y
15 18 17 22 1   improper_Z_CA_X_Y
17 19 18 130 1   improper_Z_CA_X_Y
18 20 19 108 1   improper_Z_CA_X_Y
19 21 20 63 1   improper_Z_CA_X_Y
20 22 21 41 1   improper_Z_CA_X_Y
17 21 22 23 1   improper_Z_CA_X_Y
22 24 23 25 1   improper_Z_CA_X_Y
23 26 25 39 1   improper_Z_CA_X_Y
25 40 39 41 1   improper_Z_CA_X_Y
21 39 41 42 1   improper_Z_CA_X_Y
41 43 42 62 1   improper_Z_CA_X_Y
42 44 43 45 1   improper_Z_CA_X_Y
43 46 45 59 1   improper_Z_CA_X_Y
45 60 59 61 1   improper_Z_CA_X_Y
59 62 61 66 1   improper_Z_CA_X_Y
42 61 62 63 1   improper_Z_CA_X_Y
20 62 63 64 1   improper_Z_CA_X_Y
63 65 64 107 1   improper_Z_CA_X_Y
64 66 65 85 1   improper_Z_CA_X_Y
61 65 66 67 1   improper_Z_CA_X_Y
66 68 67 69 1   improper_Z_CA_X_Y
67 70 69 83 1   improper_Z_CA_X_Y
69 84 83 85 1   improper_Z_CA_X_Y
65 83 85 86 1   improper_Z_CA_X_Y
85 87 86 106 1   improper_Z_CA_X_Y
86 88 87 89 1   improper_Z_CA_X_Y
87 90 89 103 1   improper_Z_CA_X_Y
89 104 103 105 1   improper_Z_CA_X_Y
103 106 105 110 1   improper_Z_CA_X_Y
86 105 106 107 1   improper_Z_CA_X_Y
64 106 107 108 1   improper_Z_CA_X_Y
19 107 108 109 1   improper_Z_CA_X_Y
108 110 109 129 1   improper_Z_CA_X_Y
105 109 110 111 1   improper_Z_CA_X_Y
110 112 111 113 1   improper_Z_CA_X_Y
111 114 113 127 1   improper_Z_CA_X_Y
113 128 127 129 1   improper_Z_CA_X_Y
109 127 129 130 1   improper_Z_CA_X_Y
18 129 130 131 1   improper_Z_CA_X_Y
14 130 131 132 1   improper_Z_CA_X_Y


[ pairs ]
6 2 1
6 3 1
6 4 1
10 2 1
10 3 1
10 4 1
14 2 1
14 3 1
14 4 1
7 1 1
7 10 1
7 14 1
8 1 1
8 10 1
8 14 1
9 1 1
9 10 1
9 14 1
11 1 1
11 6 1
11 14 1
12 1 1
12 6 1
12 14 1
13 1 1
13 6 1
13 14 1
15 1 1
15 6 1
15 10 1
131 1 1
131 6 1
131 10 1
16 5 1
16 131 1
17 5 1
17 131 1
130 5 1
130 15 1
132 5 1
132 15 1
18 14 1
18 16 1
22 14 1
22 16 1
19 15 1
19 22 1
130 15 1
130 22 1
21 15 1
21 18 1
23 15 1
23 18 1
20 17 1
20 130 1
108 17 1
108 130 1
129 17 1
129 19 1
131 17 1
131 19 1
21 18 1
21 108 1
63 18 1
63 108 1
107 18 1
107 20 1
109 18 1
109 20 1
22 19 1
22 63 1
41 19 1
41 63 1
62 19 1
62 21 1
64 19 1
64 21 1
17 20 1
17 41 1
23 20 1
23 41 1
39 20 1
39 22 1
42 20 1
42 22 1
24 17 1
24 21 1
25 17 1
25 21 1
26 22 1
26 24 1
39 22 1
39 24 1
27 23 1
27 39 1
31 23 1
31 39 1
35 23 1
35 39 1
40 23 1
40 26 1
41 23 1
41 26 1
28 25 1
28 31 1
28 35 1
29 25 1
29 31 1
29 35 1
30 25 1
30 31 1
30 35 1
32 25 1
32 27 1
32 35 1
33 25 1
33 27 1
33 35 1
34 25 1
34 27 1
34 35 1
36 25 1
36 27 1
36 31 1
37 25 1
37 27 1
37 31 1
38 25 1
38 27 1
38 31 1
21 25 1
21 40 1
42 25 1
42 40 1
43 21 1
43 39 1
62 21 1
62 39 1
44 41 1
44 62 1
45 41 1
45 62 1
61 41 1
61 43 1
63 41 1
63 43 1
46 42 1
46 44 1
59 42 1
59 44 1
47 43 1
47 59 1
51 43 1
51 59 1
55 43 1
55 59 1
60 43 1
60 46 1
61 43 1
61 46 1
48 45 1
48 51 1
48 55 1
49 45 1
49 51 1
49 55 1
50 45 1
50 51 1
50 55 1
52 45 1
52 47 1
52 55 1
53 45 1
53 47 1
53 55 1
54 45 1
54 47 1
54 55 1
56 45 1
56 47 1
56 51 1
57 45 1
57 47 1
57 51 1
58 45 1
58 47 1
58 51 1
62 45 1
62 60 1
66 45 1
66 60 1
42 59 1
42 66 1
63 59 1
63 66 1
65 59 1
65 62 1
67 59 1
67 62 1
20 42 1
20 61 1
64 42 1
64 61 1
65 20 1
65 62 1
107 20 1
107 62 1
66 63 1
66 107 1
85 63 1
85 107 1
106 63 1
106 65 1
108 63 1
108 65 1
61 64 1
61 85 1
67 64 1
67 85 1
83 64 1
83 66 1
86 64 1
86 66 1
68 61 1
68 65 1
69 61 1
69 65 1
70 66 1
70 68 1
83 66 1
83 68 1
71 67 1
71 83 1
75 67 1
75 83 1
79 67 1
79 83 1
84 67 1
84 70 1
85 67 1
85 70 1
72 69 1
72 75 1
72 79 1
73 69 1
73 75 1
73 79 1
74 69 1
74 75 1
74 79 1
76 69 1
76 71 1
76 79 1
77 69 1
77 71 1
77 79 1
78 69 1
78 71 1
78 79 1
80 69 1
80 71 1
80 75 1
81 69 1
81 71 1
81 75 1
82 69 1
82 71 1
82 75 1
65 69 1
65 84 1
86 69 1
86 84 1
87 65 1
87 83 1
106 65 1
106 83 1
88 85 1
88 106 1
89 85 1
89 106 1
105 85 1
105 87 1
107 85 1
107 87 1
90 86 1
90 88 1
103 86 1
103 88 1
91 87 1
91 103 1
95 87 1
95 103 1
99 87 1
99 103 1
104 87 1
104 90 1
105 87 1
105 90 1
92 89 1
92 95 1
92 99 1
93 89 1
93 95 1
93 99 1
94 89 1
94 95 1
94 99 1
96 89 1
96 91 1
96 99 1
97 89 1
97 91 1
97 99 1
98 89 1
98 91 1
98 99 1
100 89 1
100 91 1
100 95 1
101 89 1
101 91 1
101 95 1
102 89 1
102 91 1
102 95 1
106 89 1
106 104 1
110 89 1
110 104 1
86 103 1
86 110 1
107 103 1
107 110 1
109 103 1
109 106 1
111 103 1
111 106 1
64 86 1
64 105 1
108 86 1
108 105 1
19 64 1
19 106 1
109 64 1
109 106 1
110 19 1
110 107 1
129 19 1
129 107 1
105 108 1
105 129 1
111 108 1
111 129 1
127 108 1
127 110 1
130 108 1
130 110 1
112 105 1
112 109 1
113 105 1
113 109 1
114 110 1
114 112 1
127 110 1
127 112 1
115 111 1
115 127 1
119 111 1
119 127 1
123 111 1
123 127 1
128 111 1
128 114 1
129 111 1
129 114 1
116 113 1
116 119 1
116 123 1
117 113 1
117 119 1
117 123 1
118 113 1
118 119 1
118 123 1
120 113 1
120 115 1
120 123 1
121 113 1
121 115 1
121 123 1
122 113 1
122 115 1
122 123 1
124 113 1
124 115 1
124 119 1
125 113 1
125 115 1
125 119 1
126 113 1
126 115 1
126 119 1
109 113 1
109 128 1
130 113 1
130 128 1
18 109 1
18 127 1
131 109 1
131 127 1
14 18 1
14 129 1
132 18 1
132 129 1

