;---------------------------------------------
;        Generated with LigParGen 
;        William L. Jorgensen Lab
;     Author: israel.cabezadevaca@yale.edu
;    OPLS Force Field with CM1A derived Atomic Charges
;---------------------------------------------
[ defaults ]
; nbfunc        comb-rule       gen-pairs       fudgeLJ fudgeQQ
    1               3              yes            0.5     0.5

[ atomtypes ]
  opls_800    CT    12.0110     0.000    A    3.50000E-01   2.76144E-01
  opls_801    CT    12.0110     0.000    A    3.50000E-01   2.76144E-01
  opls_802    CT    12.0110     0.000    A    3.50000E-01   2.76144E-01
  opls_803    CT    12.0110     0.000    A    3.50000E-01   2.76144E-01
  opls_804    CT    12.0110     0.000    A    3.50000E-01   2.76144E-01
  opls_805    CT    12.0110     0.000    A    3.50000E-01   2.76144E-01
  opls_806    CT    12.0110     0.000    A    3.50000E-01   2.76144E-01
  opls_807    HC     1.0080     0.000    A    2.50000E-01   1.25520E-01
  opls_808    HC     1.0080     0.000    A    2.50000E-01   1.25520E-01
  opls_809    HC     1.0080     0.000    A    2.50000E-01   1.25520E-01
  opls_810    HC     1.0080     0.000    A    2.50000E-01   1.25520E-01
  opls_811    HC     1.0080     0.000    A    2.50000E-01   1.25520E-01
  opls_812    HC     1.0080     0.000    A    2.50000E-01   1.25520E-01
  opls_813    HC     1.0080     0.000    A    2.50000E-01   1.25520E-01
  opls_814    HC     1.0080     0.000    A    2.50000E-01   1.25520E-01
  opls_815    HC     1.0080     0.000    A    2.50000E-01   1.25520E-01
  opls_816    HC     1.0080     0.000    A    2.50000E-01   1.25520E-01
  opls_817    HC     1.0080     0.000    A    2.50000E-01   1.25520E-01
  opls_818    HC     1.0080     0.000    A    2.50000E-01   1.25520E-01
  opls_819    HC     1.0080     0.000    A    2.50000E-01   1.25520E-01
  opls_820    HC     1.0080     0.000    A    2.50000E-01   1.25520E-01
  opls_821    HC     1.0080     0.000    A    2.50000E-01   1.25520E-01
  opls_822    HC     1.0080     0.000    A    2.50000E-01   1.25520E-01

[ moleculetype ]
; Name               nrexcl
  HEP                  3

[ atoms ]
;   nr       type  resnr residue  atom   cgnr     charge       mass
     1   opls_806      1    HEP   C1       1    -0.2397    12.0110 
     2   opls_807      1    HEP   H1       1     0.0816     1.0080 
     3   opls_808      1    HEP   H2       1     0.0816     1.0080 
     4   opls_809      1    HEP   H3       1     0.0816     1.0080 
     5   opls_805      1    HEP   C2       1    -0.1834    12.0110 
     6   opls_810      1    HEP   H4       1     0.0892     1.0080 
     7   opls_811      1    HEP   H5       1     0.0892     1.0080 
     8   opls_801      1    HEP   C3       1    -0.1811    12.0110 
     9   opls_812      1    HEP   H6       1     0.0904     1.0080 
    10   opls_813      1    HEP   H7       1     0.0904     1.0080 
    11   opls_800      1    HEP   C4       1    -0.1833    12.0110 
    12   opls_814      1    HEP   H8       1     0.0903     1.0080 
    13   opls_815      1    HEP   H9       1     0.0903     1.0080 
    14   opls_802      1    HEP   C5       1    -0.1802    12.0110 
    15   opls_816      1    HEP  H10       1     0.0915     1.0080 
    16   opls_817      1    HEP  H11       1     0.0915     1.0080 
    17   opls_803      1    HEP   C6       1    -0.1839    12.0110 
    18   opls_818      1    HEP  H12       1     0.0894     1.0080 
    19   opls_819      1    HEP  H13       1     0.0894     1.0080 
    20   opls_804      1    HEP   C7       1    -0.2398    12.0110 
    21   opls_820      1    HEP  H14       1     0.0817     1.0080 
    22   opls_821      1    HEP  H15       1     0.0817     1.0080 
    23   opls_822      1    HEP  H16       1     0.0816     1.0080 

[ bonds ]
;  ai    aj   funct      c0       c1
    8   11    1      0.1529    224262.400
   14   11    1      0.1529    224262.400
   17   14    1      0.1529    224262.400
   20   17    1      0.1529    224262.400
    5    8    1      0.1529    224262.400
    1    5    1      0.1529    224262.400
    2    1    1      0.1090    284512.000
    3    1    1      0.1090    284512.000
    4    1    1      0.1090    284512.000
    6    5    1      0.1090    284512.000
    7    5    1      0.1090    284512.000
    9    8    1      0.1090    284512.000
   10    8    1      0.1090    284512.000
   12   11    1      0.1090    284512.000
   13   11    1      0.1090    284512.000
   15   14    1      0.1090    284512.000
   16   14    1      0.1090    284512.000
   18   17    1      0.1090    284512.000
   19   17    1      0.1090    284512.000
   21   20    1      0.1090    284512.000
   22   20    1      0.1090    284512.000
   23   20    1      0.1090    284512.000

[angles]
;  ai    aj   ak  funct      c0       c1 
   14   11    8    1       112.700    488.273
   17   14   11    1       112.700    488.273
   20   17   14    1       112.700    488.273
    5    8   11    1       112.700    488.273
    1    5    8    1       112.700    488.273
    2    1    5    1       110.700    313.800
    3    1    5    1       110.700    313.800
    4    1    5    1       110.700    313.800
    6    5    1    1       110.700    313.800
    7    5    1    1       110.700    313.800
    9    8    5    1       110.700    313.800
   10    8    5    1       110.700    313.800
   12   11    8    1       110.700    313.800
   13   11    8    1       110.700    313.800
   15   14   11    1       110.700    313.800
   16   14   11    1       110.700    313.800
   18   17   14    1       110.700    313.800
   19   17   14    1       110.700    313.800
   21   20   17    1       110.700    313.800
   22   20   17    1       110.700    313.800
   23   20   17    1       110.700    313.800
   12   11   14    1       110.700    313.800
   13   11   14    1       110.700    313.800
   15   14   17    1       110.700    313.800
   16   14   17    1       110.700    313.800
   18   17   20    1       110.700    313.800
   19   17   20    1       110.700    313.800
    3    1    2    1       107.800    276.144
    4    1    2    1       107.800    276.144
    4    1    3    1       107.800    276.144
    7    5    6    1       107.800    276.144
    8    5    6    1       110.700    313.800
    8    5    7    1       110.700    313.800
   10    8    9    1       107.800    276.144
   11    8    9    1       110.700    313.800
   11    8   10    1       110.700    313.800
   13   11   12    1       107.800    276.144
   16   14   15    1       107.800    276.144
   19   17   18    1       107.800    276.144
   22   20   21    1       107.800    276.144
   23   20   21    1       107.800    276.144
   23   20   22    1       107.800    276.144
[ dihedrals ]
;  PROPER DIHEDRAL ANGLES
;  ai    aj   ak   al funct      c0       c1      c2      c3       c4     c5
   17   14   11    8    3       1.360  -0.523    0.837  -1.674  -0.000   0.000
   20   17   14   11    3       1.360  -0.523    0.837  -1.674  -0.000   0.000
    5    8   11   14    3       1.360  -0.523    0.837  -1.674  -0.000   0.000
    1    5    8   11    3       1.360  -0.523    0.837  -1.674  -0.000   0.000
    2    1    5    8    3       0.628   1.883    0.000  -2.510  -0.000   0.000
    3    1    5    8    3       0.628   1.883    0.000  -2.510  -0.000   0.000
    4    1    5    8    3       0.628   1.883    0.000  -2.510  -0.000   0.000
    6    5    1    2    3       0.628   1.883    0.000  -2.510  -0.000   0.000
    7    5    1    2    3       0.628   1.883    0.000  -2.510  -0.000   0.000
    9    8    5    1    3       0.628   1.883    0.000  -2.510  -0.000   0.000
   10    8    5    1    3       0.628   1.883    0.000  -2.510  -0.000   0.000
   12   11    8    5    3       0.628   1.883    0.000  -2.510  -0.000   0.000
   13   11    8    5    3       0.628   1.883    0.000  -2.510  -0.000   0.000
   15   14   11    8    3       0.628   1.883    0.000  -2.510  -0.000   0.000
   16   14   11    8    3       0.628   1.883    0.000  -2.510  -0.000   0.000
   18   17   14   11    3       0.628   1.883    0.000  -2.510  -0.000   0.000
   19   17   14   11    3       0.628   1.883    0.000  -2.510  -0.000   0.000
   21   20   17   14    3       0.628   1.883    0.000  -2.510  -0.000   0.000
   22   20   17   14    3       0.628   1.883    0.000  -2.510  -0.000   0.000
   23   20   17   14    3       0.628   1.883    0.000  -2.510  -0.000   0.000
    9    8   11   14    3       0.628   1.883    0.000  -2.510  -0.000   0.000
   10    8   11   14    3       0.628   1.883    0.000  -2.510  -0.000   0.000
   12   11   14   17    3       0.628   1.883    0.000  -2.510  -0.000   0.000
   13   11   14   17    3       0.628   1.883    0.000  -2.510  -0.000   0.000
   15   14   17   20    3       0.628   1.883    0.000  -2.510  -0.000   0.000
   16   14   17   20    3       0.628   1.883    0.000  -2.510  -0.000   0.000
    6    5    1    3    3       0.628   1.883    0.000  -2.510  -0.000   0.000
    7    5    1    3    3       0.628   1.883    0.000  -2.510  -0.000   0.000
    6    5    1    4    3       0.628   1.883    0.000  -2.510  -0.000   0.000
    7    5    1    4    3       0.628   1.883    0.000  -2.510  -0.000   0.000
    9    8    5    6    3       0.628   1.883    0.000  -2.510  -0.000   0.000
   10    8    5    6    3       0.628   1.883    0.000  -2.510  -0.000   0.000
   11    8    5    6    3       0.628   1.883    0.000  -2.510  -0.000   0.000
    9    8    5    7    3       0.628   1.883    0.000  -2.510  -0.000   0.000
   10    8    5    7    3       0.628   1.883    0.000  -2.510  -0.000   0.000
   11    8    5    7    3       0.628   1.883    0.000  -2.510  -0.000   0.000
   12   11    8    9    3       0.628   1.883    0.000  -2.510  -0.000   0.000
   13   11    8    9    3       0.628   1.883    0.000  -2.510  -0.000   0.000
   12   11    8   10    3       0.628   1.883    0.000  -2.510  -0.000   0.000
   13   11    8   10    3       0.628   1.883    0.000  -2.510  -0.000   0.000
   15   14   11   12    3       0.628   1.883    0.000  -2.510  -0.000   0.000
   16   14   11   12    3       0.628   1.883    0.000  -2.510  -0.000   0.000
   15   14   11   13    3       0.628   1.883    0.000  -2.510  -0.000   0.000
   16   14   11   13    3       0.628   1.883    0.000  -2.510  -0.000   0.000
   18   17   14   15    3       0.628   1.883    0.000  -2.510  -0.000   0.000
   19   17   14   15    3       0.628   1.883    0.000  -2.510  -0.000   0.000
   18   17   14   16    3       0.628   1.883    0.000  -2.510  -0.000   0.000
   19   17   14   16    3       0.628   1.883    0.000  -2.510  -0.000   0.000
   21   20   17   18    3       0.628   1.883    0.000  -2.510  -0.000   0.000
   22   20   17   18    3       0.628   1.883    0.000  -2.510  -0.000   0.000
   23   20   17   18    3       0.628   1.883    0.000  -2.510  -0.000   0.000
   21   20   17   19    3       0.628   1.883    0.000  -2.510  -0.000   0.000
   22   20   17   19    3       0.628   1.883    0.000  -2.510  -0.000   0.000
   23   20   17   19    3       0.628   1.883    0.000  -2.510  -0.000   0.000
[ dihedrals ]
;IMPROPER DIHEDRAL ANGLES
;  ai    aj   ak   al funct      c0       c1      c2      c3       c4     c5
[ pairs ]
;  ai    aj funct
   11   20    1
   11    1    1
   11    6    1
   11    7    1
   11   18    1
   11   19    1
    8   17    1
    8    2    1
    8    3    1
    8    4    1
    8   15    1
    8   16    1
   14    5    1
   14    9    1
   14   10    1
   14   21    1
   14   22    1
   14   23    1
   17   12    1
   17   13    1
   20   15    1
   20   16    1
    5   12    1
    5   13    1
    1    9    1
    1   10    1
    2    6    1
    2    7    1
    3    6    1
    3    7    1
    4    6    1
    4    7    1
    6    9    1
    6   10    1
    7    9    1
    7   10    1
    9   12    1
    9   13    1
   10   12    1
   10   13    1
   12   15    1
   12   16    1
   13   15    1
   13   16    1
   15   18    1
   15   19    1
   16   18    1
   16   19    1
   18   21    1
   18   22    1
   18   23    1
   19   21    1
   19   22    1
   19   23    1
