; Atomtypes extracted from mol_DEC__decane_ligpargen.gmx.itp
[ atomtypes ]
  opls_800    CT    12.0110     0.000    A    3.50000E-01   2.76144E-01
  opls_801    CT    12.0110     0.000    A    3.50000E-01   2.76144E-01
  opls_802    CT    12.0110     0.000    A    3.50000E-01   2.76144E-01
  opls_803    CT    12.0110     0.000    A    3.50000E-01   2.76144E-01
  opls_804    CT    12.0110     0.000    A    3.50000E-01   2.76144E-01
  opls_805    CT    12.0110     0.000    A    3.50000E-01   2.76144E-01
  opls_806    CT    12.0110     0.000    A    3.50000E-01   2.76144E-01
  opls_807    CT    12.0110     0.000    A    3.50000E-01   2.76144E-01
  opls_808    CT    12.0110     0.000    A    3.50000E-01   2.76144E-01
  opls_809    CT    12.0110     0.000    A    3.50000E-01   2.76144E-01
  opls_810    HC     1.0080     0.000    A    2.50000E-01   1.25520E-01
  opls_811    HC     1.0080     0.000    A    2.50000E-01   1.25520E-01
  opls_812    HC     1.0080     0.000    A    2.50000E-01   1.25520E-01
  opls_813    HC     1.0080     0.000    A    2.50000E-01   1.25520E-01
  opls_814    HC     1.0080     0.000    A    2.50000E-01   1.25520E-01
  opls_815    HC     1.0080     0.000    A    2.50000E-01   1.25520E-01
  opls_816    HC     1.0080     0.000    A    2.50000E-01   1.25520E-01
  opls_817    HC     1.0080     0.000    A    2.50000E-01   1.25520E-01
  opls_818    HC     1.0080     0.000    A    2.50000E-01   1.25520E-01
  opls_819    HC     1.0080     0.000    A    2.50000E-01   1.25520E-01
  opls_820    HC     1.0080     0.000    A    2.50000E-01   1.25520E-01
  opls_821    HC     1.0080     0.000    A    2.50000E-01   1.25520E-01
  opls_822    HC     1.0080     0.000    A    2.50000E-01   1.25520E-01
  opls_823    HC     1.0080     0.000    A    2.50000E-01   1.25520E-01
  opls_824    HC     1.0080     0.000    A    2.50000E-01   1.25520E-01
  opls_825    HC     1.0080     0.000    A    2.50000E-01   1.25520E-01
  opls_826    HC     1.0080     0.000    A    2.50000E-01   1.25520E-01
  opls_827    HC     1.0080     0.000    A    2.50000E-01   1.25520E-01
  opls_828    HC     1.0080     0.000    A    2.50000E-01   1.25520E-01
  opls_829    HC     1.0080     0.000    A    2.50000E-01   1.25520E-01
  opls_830    HC     1.0080     0.000    A    2.50000E-01   1.25520E-01
  opls_831    HC     1.0080     0.000    A    2.50000E-01   1.25520E-01
