; Molecule section extracted from mol_DEC__decane_ligpargen.gmx.itp
[ moleculetype ]
; Name               nrexcl
  DEC                  3

[ atoms ]
;   nr       type  resnr residue  atom   cgnr     charge       mass
     1   opls_809      1    DEC   C1       1    -0.2367    12.0110 
     2   opls_808      1    DEC   C2       1    -0.1754    12.0110 
     3   opls_807      1    DEC   C3       1    -0.1736    12.0110 
     4   opls_801      1    DEC   C4       1    -0.1744    12.0110 
     5   opls_800      1    DEC   C5       1    -0.1784    12.0110 
     6   opls_802      1    DEC   C6       1    -0.1795    12.0110 
     7   opls_803      1    DEC   C7       1    -0.1738    12.0110 
     8   opls_804      1    DEC   C8       1    -0.1743    12.0110 
     9   opls_805      1    DEC   C9       1    -0.1759    12.0110 
    10   opls_806      1    DEC   C10      1    -0.2363    12.0110 
    11   opls_810      1    DEC   H1       1     0.0805     1.0080 
    12   opls_811      1    DEC   H2       1     0.0805     1.0080 
    13   opls_812      1    DEC   H3       1     0.0805     1.0080 
    14   opls_813      1    DEC   H4       1     0.0861     1.0080 
    15   opls_814      1    DEC   H5       1     0.0861     1.0080 
    16   opls_815      1    DEC   H6       1     0.0854     1.0080 
    17   opls_816      1    DEC   H7       1     0.0854     1.0080 
    18   opls_817      1    DEC   H8       1     0.0873     1.0080 
    19   opls_818      1    DEC   H9       1     0.0873     1.0080 
    20   opls_819      1    DEC   H10      1     0.0896     1.0080 
    21   opls_820      1    DEC   H11      1     0.0896     1.0080 
    22   opls_821      1    DEC   H12      1     0.0894     1.0080 
    23   opls_822      1    DEC   H13      1     0.0894     1.0080 
    24   opls_823      1    DEC   H14      1     0.0878     1.0080 
    25   opls_824      1    DEC   H15      1     0.0878     1.0080 
    26   opls_825      1    DEC   H16      1     0.0868     1.0080 
    27   opls_826      1    DEC   H17      1     0.0868     1.0080 
    28   opls_827      1    DEC   H18      1     0.0849     1.0080 
    29   opls_828      1    DEC   H19      1     0.0849     1.0080 
    30   opls_829      1    DEC   H20      1     0.0807     1.0080 
    31   opls_830      1    DEC   H21      1     0.0807     1.0080 
    32   opls_831      1    DEC   H22      1     0.0808     1.0080 

[ bonds ]
;  ai    aj   funct      c0       c1
    4    5    1      0.1529    224262.400
    6    5    1      0.1529    224262.400
    7    6    1      0.1529    224262.400
    8    7    1      0.1529    224262.400
    9    8    1      0.1529    224262.400
   10    9    1      0.1529    224262.400
    3    4    1      0.1529    224262.400
    2    3    1      0.1529    224262.400
    1    2    1      0.1529    224262.400
   11    1    1      0.1090    284512.000
   12    1    1      0.1090    284512.000
   13    1    1      0.1090    284512.000
   14    2    1      0.1090    284512.000
   15    2    1      0.1090    284512.000
   16    3    1      0.1090    284512.000
   17    3    1      0.1090    284512.000
   18    4    1      0.1090    284512.000
   19    4    1      0.1090    284512.000
   20    5    1      0.1090    284512.000
   21    5    1      0.1090    284512.000
   22    6    1      0.1090    284512.000
   23    6    1      0.1090    284512.000
   24    7    1      0.1090    284512.000
   25    7    1      0.1090    284512.000
   26    8    1      0.1090    284512.000
   27    8    1      0.1090    284512.000
   28    9    1      0.1090    284512.000
   29    9    1      0.1090    284512.000
   30   10    1      0.1090    284512.000
   31   10    1      0.1090    284512.000
   32   10    1      0.1090    284512.000

[angles]
;  ai    aj   ak  funct      c0       c1 
    6    5    4    1       112.700    488.273
    7    6    5    1       112.700    488.273
    8    7    6    1       112.700    488.273
    9    8    7    1       112.700    488.273
   10    9    8    1       112.700    488.273
    3    4    5    1       112.700    488.273
    2    3    4    1       112.700    488.273
    1    2    3    1       112.700    488.273
   11    1    2    1       110.700    313.800
   12    1    2    1       110.700    313.800
   13    1    2    1       110.700    313.800
   14    2    1    1       110.700    313.800
   15    2    1    1       110.700    313.800
   16    3    2    1       110.700    313.800
   17    3    2    1       110.700    313.800
   18    4    3    1       110.700    313.800
   19    4    3    1       110.700    313.800
   20    5    4    1       110.700    313.800
   21    5    4    1       110.700    313.800
   22    6    5    1       110.700    313.800
   23    6    5    1       110.700    313.800
   24    7    6    1       110.700    313.800
   25    7    6    1       110.700    313.800
   26    8    7    1       110.700    313.800
   27    8    7    1       110.700    313.800
   28    9    8    1       110.700    313.800
   29    9    8    1       110.700    313.800
   30   10    9    1       110.700    313.800
   31   10    9    1       110.700    313.800
   32   10    9    1       110.700    313.800
   20    5    6    1       110.700    313.800
   21    5    6    1       110.700    313.800
   22    6    7    1       110.700    313.800
   23    6    7    1       110.700    313.800
   24    7    8    1       110.700    313.800
   25    7    8    1       110.700    313.800
   26    8    9    1       110.700    313.800
   27    8    9    1       110.700    313.800
   28    9   10    1       110.700    313.800
   29    9   10    1       110.700    313.800
   12    1   11    1       107.800    276.144
   13    1   11    1       107.800    276.144
   13    1   12    1       107.800    276.144
    3    2   14    1       110.700    313.800
   15    2   14    1       107.800    276.144
    3    2   15    1       110.700    313.800
    4    3   16    1       110.700    313.800
   17    3   16    1       107.800    276.144
    4    3   17    1       110.700    313.800
    5    4   18    1       110.700    313.800
   19    4   18    1       107.800    276.144
    5    4   19    1       110.700    313.800
   21    5   20    1       107.800    276.144
   23    6   22    1       107.800    276.144
   25    7   24    1       107.800    276.144
   27    8   26    1       107.800    276.144
   29    9   28    1       107.800    276.144
   31   10   30    1       107.800    276.144
   32   10   30    1       107.800    276.144
   32   10   31    1       107.800    276.144
[ dihedrals ]
;  PROPER DIHEDRAL ANGLES
;  ai    aj   ak   al funct      c0       c1      c2      c3       c4     c5
    7    6    5    4    3       1.360  -0.523    0.837  -1.674  -0.000   0.000
    8    7    6    5    3       1.360  -0.523    0.837  -1.674  -0.000   0.000
    9    8    7    6    3       1.360  -0.523    0.837  -1.674  -0.000   0.000
   10    9    8    7    3       1.360  -0.523    0.837  -1.674  -0.000   0.000
    3    4    5    6    3       1.360  -0.523    0.837  -1.674  -0.000   0.000
    2    3    4    5    3       1.360  -0.523    0.837  -1.674  -0.000   0.000
    1    2    3    4    3       1.360  -0.523    0.837  -1.674  -0.000   0.000
   11    1    2    3    3       0.628   1.883    0.000  -2.510  -0.000   0.000
   12    1    2    3    3       0.628   1.883    0.000  -2.510  -0.000   0.000
   13    1    2    3    3       0.628   1.883    0.000  -2.510  -0.000   0.000
   14    2    1   11    3       0.628   1.883    0.000  -2.510  -0.000   0.000
   15    2    1   11    3       0.628   1.883    0.000  -2.510  -0.000   0.000
   16    3    2    1    3       0.628   1.883    0.000  -2.510  -0.000   0.000
   17    3    2    1    3       0.628   1.883    0.000  -2.510  -0.000   0.000
   18    4    3    2    3       0.628   1.883    0.000  -2.510  -0.000   0.000
   19    4    3    2    3       0.628   1.883    0.000  -2.510  -0.000   0.000
   20    5    4    3    3       0.628   1.883    0.000  -2.510  -0.000   0.000
   21    5    4    3    3       0.628   1.883    0.000  -2.510  -0.000   0.000
   22    6    5    4    3       0.628   1.883    0.000  -2.510  -0.000   0.000
   23    6    5    4    3       0.628   1.883    0.000  -2.510  -0.000   0.000
   24    7    6    5    3       0.628   1.883    0.000  -2.510  -0.000   0.000
   25    7    6    5    3       0.628   1.883    0.000  -2.510  -0.000   0.000
   26    8    7    6    3       0.628   1.883    0.000  -2.510  -0.000   0.000
   27    8    7    6    3       0.628   1.883    0.000  -2.510  -0.000   0.000
   28    9    8    7    3       0.628   1.883    0.000  -2.510  -0.000   0.000
   29    9    8    7    3       0.628   1.883    0.000  -2.510  -0.000   0.000
   30   10    9    8    3       0.628   1.883    0.000  -2.510  -0.000   0.000
   31   10    9    8    3       0.628   1.883    0.000  -2.510  -0.000   0.000
   32   10    9    8    3       0.628   1.883    0.000  -2.510  -0.000   0.000
   18    4    5    6    3       0.628   1.883    0.000  -2.510  -0.000   0.000
   19    4    5    6    3       0.628   1.883    0.000  -2.510  -0.000   0.000
   20    5    6    7    3       0.628   1.883    0.000  -2.510  -0.000   0.000
   21    5    6    7    3       0.628   1.883    0.000  -2.510  -0.000   0.000
   22    6    7    8    3       0.628   1.883    0.000  -2.510  -0.000   0.000
   23    6    7    8    3       0.628   1.883    0.000  -2.510  -0.000   0.000
   24    7    8    9    3       0.628   1.883    0.000  -2.510  -0.000   0.000
   25    7    8    9    3       0.628   1.883    0.000  -2.510  -0.000   0.000
   26    8    9   10    3       0.628   1.883    0.000  -2.510  -0.000   0.000
   27    8    9   10    3       0.628   1.883    0.000  -2.510  -0.000   0.000
   14    2    1   12    3       0.628   1.883    0.000  -2.510  -0.000   0.000
   15    2    1   12    3       0.628   1.883    0.000  -2.510  -0.000   0.000
   14    2    1   13    3       0.628   1.883    0.000  -2.510  -0.000   0.000
   15    2    1   13    3       0.628   1.883    0.000  -2.510  -0.000   0.000
    4    3    2   14    3       0.628   1.883    0.000  -2.510  -0.000   0.000
   16    3    2   14    3       0.628   1.883    0.000  -2.510  -0.000   0.000
   17    3    2   14    3       0.628   1.883    0.000  -2.510  -0.000   0.000
    4    3    2   15    3       0.628   1.883    0.000  -2.510  -0.000   0.000
   16    3    2   15    3       0.628   1.883    0.000  -2.510  -0.000   0.000
   17    3    2   15    3       0.628   1.883    0.000  -2.510  -0.000   0.000
    5    4    3   16    3       0.628   1.883    0.000  -2.510  -0.000   0.000
   18    4    3   16    3       0.628   1.883    0.000  -2.510  -0.000   0.000
   19    4    3   16    3       0.628   1.883    0.000  -2.510  -0.000   0.000
    5    4    3   17    3       0.628   1.883    0.000  -2.510  -0.000   0.000
   18    4    3   17    3       0.628   1.883    0.000  -2.510  -0.000   0.000
   19    4    3   17    3       0.628   1.883    0.000  -2.510  -0.000   0.000
   20    5    4   18    3       0.628   1.883    0.000  -2.510  -0.000   0.000
   21    5    4   18    3       0.628   1.883    0.000  -2.510  -0.000   0.000
   20    5    4   19    3       0.628   1.883    0.000  -2.510  -0.000   0.000
   21    5    4   19    3       0.628   1.883    0.000  -2.510  -0.000   0.000
   22    6    5   20    3       0.628   1.883    0.000  -2.510  -0.000   0.000
   23    6    5   20    3       0.628   1.883    0.000  -2.510  -0.000   0.000
   22    6    5   21    3       0.628   1.883    0.000  -2.510  -0.000   0.000
   23    6    5   21    3       0.628   1.883    0.000  -2.510  -0.000   0.000
   24    7    6   22    3       0.628   1.883    0.000  -2.510  -0.000   0.000
   25    7    6   22    3       0.628   1.883    0.000  -2.510  -0.000   0.000
   24    7    6   23    3       0.628   1.883    0.000  -2.510  -0.000   0.000
   25    7    6   23    3       0.628   1.883    0.000  -2.510  -0.000   0.000
   26    8    7   24    3       0.628   1.883    0.000  -2.510  -0.000   0.000
   27    8    7   24    3       0.628   1.883    0.000  -2.510  -0.000   0.000
   26    8    7   25    3       0.628   1.883    0.000  -2.510  -0.000   0.000
   27    8    7   25    3       0.628   1.883    0.000  -2.510  -0.000   0.000
   28    9    8   26    3       0.628   1.883    0.000  -2.510  -0.000   0.000
   29    9    8   26    3       0.628   1.883    0.000  -2.510  -0.000   0.000
   28    9    8   27    3       0.628   1.883    0.000  -2.510  -0.000   0.000
   29    9    8   27    3       0.628   1.883    0.000  -2.510  -0.000   0.000
   30   10    9   28    3       0.628   1.883    0.000  -2.510  -0.000   0.000
   31   10    9   28    3       0.628   1.883    0.000  -2.510  -0.000   0.000
   32   10    9   28    3       0.628   1.883    0.000  -2.510  -0.000   0.000
   30   10    9   29    3       0.628   1.883    0.000  -2.510  -0.000   0.000
   31   10    9   29    3       0.628   1.883    0.000  -2.510  -0.000   0.000
   32   10    9   29    3       0.628   1.883    0.000  -2.510  -0.000   0.000
[ dihedrals ]
;IMPROPER DIHEDRAL ANGLES
;  ai    aj   ak   al funct      c0       c1      c2      c3       c4     c5
[ pairs ]
;  ai    aj funct
    5    8    1
    5    2    1
    5   16    1
    5   17    1
    5   24    1
    5   25    1
    4    7    1
    4    1    1
    4   14    1
    4   15    1
    4   22    1
    4   23    1
    6    9    1
    6    3    1
    6   18    1
    6   19    1
    6   26    1
    6   27    1
    7   10    1
    7   20    1
    7   21    1
    7   28    1
    7   29    1
    8   22    1
    8   23    1
    8   30    1
    8   31    1
    8   32    1
    9   24    1
    9   25    1
   10   26    1
   10   27    1
    3   11    1
    3   12    1
    3   13    1
    3   20    1
    3   21    1
    2   18    1
    2   19    1
    1   16    1
    1   17    1
   11   14    1
   11   15    1
   12   14    1
   12   15    1
   13   14    1
   13   15    1
   14   16    1
   14   17    1
   15   16    1
   15   17    1
   16   18    1
   16   19    1
   17   18    1
   17   19    1
   18   20    1
   18   21    1
   19   20    1
   19   21    1
   20   22    1
   20   23    1
   21   22    1
   21   23    1
   22   24    1
   22   25    1
   23   24    1
   23   25    1
   24   26    1
   24   27    1
   25   26    1
   25   27    1
   26   28    1
   26   29    1
   27   28    1
   27   29    1
   28   30    1
   28   31    1
   28   32    1
   29   30    1
   29   31    1
   29   32    1
