;---------------------------------------------
;        Generated with LigParGen 
;        William L. Jorgensen Lab
;     Author: israel.cabezadevaca@yale.edu
;    OPLS Force Field with CM1A derived Atomic Charges
;---------------------------------------------
[ defaults ]
; nbfunc        comb-rule       gen-pairs       fudgeLJ fudgeQQ
    1               3              yes            0.5     0.5

[ atomtypes ]
  opls_800    CT    12.0110     0.000    A    3.50000E-01   2.76144E-01
  opls_801    CT    12.0110     0.000    A    3.50000E-01   2.76144E-01
  opls_802    CT    12.0110     0.000    A    3.50000E-01   2.76144E-01
  opls_803    CT    12.0110     0.000    A    3.50000E-01   2.76144E-01
  opls_804    CT    12.0110     0.000    A    3.50000E-01   2.76144E-01
  opls_805    CT    12.0110     0.000    A    3.50000E-01   2.76144E-01
  opls_806    HC     1.0080     0.000    A    2.50000E-01   1.25520E-01
  opls_807    HC     1.0080     0.000    A    2.50000E-01   1.25520E-01
  opls_808    HC     1.0080     0.000    A    2.50000E-01   1.25520E-01
  opls_809    HC     1.0080     0.000    A    2.50000E-01   1.25520E-01
  opls_810    HC     1.0080     0.000    A    2.50000E-01   1.25520E-01
  opls_811    HC     1.0080     0.000    A    2.50000E-01   1.25520E-01
  opls_812    HC     1.0080     0.000    A    2.50000E-01   1.25520E-01
  opls_813    HC     1.0080     0.000    A    2.50000E-01   1.25520E-01
  opls_814    HC     1.0080     0.000    A    2.50000E-01   1.25520E-01
  opls_815    HC     1.0080     0.000    A    2.50000E-01   1.25520E-01
  opls_816    HC     1.0080     0.000    A    2.50000E-01   1.25520E-01
  opls_817    HC     1.0080     0.000    A    2.50000E-01   1.25520E-01
  opls_818    HC     1.0080     0.000    A    2.50000E-01   1.25520E-01
  opls_819    HC     1.0080     0.000    A    2.50000E-01   1.25520E-01

[ moleculetype ]
; Name               nrexcl
  HEX                  3

[ atoms ]
;   nr       type  resnr residue  atom   cgnr     charge       mass
     1   opls_805      1    HEX   C1       1    -0.2395    12.0110 
     2   opls_801      1    HEX   C2       1    -0.1776    12.0110 
     3   opls_800      1    HEX   C3       1    -0.1739    12.0110 
     4   opls_802      1    HEX   C4       1    -0.1741    12.0110 
     5   opls_803      1    HEX   C5       1    -0.1752    12.0110 
     6   opls_804      1    HEX   C6       1    -0.2367    12.0110 
     7   opls_806      1    HEX   H1       1     0.0802     1.0080 
     8   opls_807      1    HEX   H2       1     0.0802     1.0080 
     9   opls_808      1    HEX   H3       1     0.0802     1.0080 
    10   opls_809      1    HEX   H4       1     0.0889     1.0080 
    11   opls_810      1    HEX   H5       1     0.0889     1.0080 
    12   opls_811      1    HEX   H6       1     0.0874     1.0080 
    13   opls_812      1    HEX   H7       1     0.0874     1.0080 
    14   opls_813      1    HEX   H8       1     0.0851     1.0080 
    15   opls_814      1    HEX   H9       1     0.0851     1.0080 
    16   opls_815      1    HEX   H10      1     0.0860     1.0080 
    17   opls_816      1    HEX   H11      1     0.0860     1.0080 
    18   opls_817      1    HEX   H12      1     0.0805     1.0080 
    19   opls_818      1    HEX   H13      1     0.0805     1.0080 
    20   opls_819      1    HEX   H14      1     0.0806     1.0080 

[ bonds ]
;  ai    aj   funct      c0       c1
    2    3    1      0.1529    224262.400
    4    3    1      0.1529    224262.400
    5    4    1      0.1529    224262.400
    6    5    1      0.1529    224262.400
    1    2    1      0.1529    224262.400
    7    1    1      0.1090    284512.000
    8    1    1      0.1090    284512.000
    9    1    1      0.1090    284512.000
   10    2    1      0.1090    284512.000
   11    2    1      0.1090    284512.000
   12    3    1      0.1090    284512.000
   13    3    1      0.1090    284512.000
   14    4    1      0.1090    284512.000
   15    4    1      0.1090    284512.000
   16    5    1      0.1090    284512.000
   17    5    1      0.1090    284512.000
   18    6    1      0.1090    284512.000
   19    6    1      0.1090    284512.000
   20    6    1      0.1090    284512.000

[angles]
;  ai    aj   ak  funct      c0       c1 
    4    3    2    1       112.700    488.273
    5    4    3    1       112.700    488.273
    6    5    4    1       112.700    488.273
    1    2    3    1       112.700    488.273
    7    1    2    1       110.700    313.800
    8    1    2    1       110.700    313.800
    9    1    2    1       110.700    313.800
   10    2    1    1       110.700    313.800
   11    2    1    1       110.700    313.800
   12    3    2    1       110.700    313.800
   13    3    2    1       110.700    313.800
   14    4    3    1       110.700    313.800
   15    4    3    1       110.700    313.800
   16    5    4    1       110.700    313.800
   17    5    4    1       110.700    313.800
   18    6    5    1       110.700    313.800
   19    6    5    1       110.700    313.800
   20    6    5    1       110.700    313.800
   12    3    4    1       110.700    313.800
   13    3    4    1       110.700    313.800
   14    4    5    1       110.700    313.800
   15    4    5    1       110.700    313.800
   16    5    6    1       110.700    313.800
   17    5    6    1       110.700    313.800
    8    1    7    1       107.800    276.144
    9    1    7    1       107.800    276.144
    9    1    8    1       107.800    276.144
    3    2   10    1       110.700    313.800
   11    2   10    1       107.800    276.144
    3    2   11    1       110.700    313.800
   13    3   12    1       107.800    276.144
   15    4   14    1       107.800    276.144
   17    5   16    1       107.800    276.144
   19    6   18    1       107.800    276.144
   20    6   18    1       107.800    276.144
   20    6   19    1       107.800    276.144
[ dihedrals ]
;  PROPER DIHEDRAL ANGLES
;  ai    aj   ak   al funct      c0       c1      c2      c3       c4     c5
    5    4    3    2    3       1.360  -0.523    0.837  -1.674  -0.000   0.000
    6    5    4    3    3       1.360  -0.523    0.837  -1.674  -0.000   0.000
    1    2    3    4    3       1.360  -0.523    0.837  -1.674  -0.000   0.000
    7    1    2    3    3       0.628   1.883    0.000  -2.510  -0.000   0.000
    8    1    2    3    3       0.628   1.883    0.000  -2.510  -0.000   0.000
    9    1    2    3    3       0.628   1.883    0.000  -2.510  -0.000   0.000
   10    2    1    7    3       0.628   1.883    0.000  -2.510  -0.000   0.000
   11    2    1    7    3       0.628   1.883    0.000  -2.510  -0.000   0.000
   12    3    2    1    3       0.628   1.883    0.000  -2.510  -0.000   0.000
   13    3    2    1    3       0.628   1.883    0.000  -2.510  -0.000   0.000
   14    4    3    2    3       0.628   1.883    0.000  -2.510  -0.000   0.000
   15    4    3    2    3       0.628   1.883    0.000  -2.510  -0.000   0.000
   16    5    4    3    3       0.628   1.883    0.000  -2.510  -0.000   0.000
   17    5    4    3    3       0.628   1.883    0.000  -2.510  -0.000   0.000
   18    6    5    4    3       0.628   1.883    0.000  -2.510  -0.000   0.000
   19    6    5    4    3       0.628   1.883    0.000  -2.510  -0.000   0.000
   20    6    5    4    3       0.628   1.883    0.000  -2.510  -0.000   0.000
   10    2    3    4    3       0.628   1.883    0.000  -2.510  -0.000   0.000
   11    2    3    4    3       0.628   1.883    0.000  -2.510  -0.000   0.000
   12    3    4    5    3       0.628   1.883    0.000  -2.510  -0.000   0.000
   13    3    4    5    3       0.628   1.883    0.000  -2.510  -0.000   0.000
   14    4    5    6    3       0.628   1.883    0.000  -2.510  -0.000   0.000
   15    4    5    6    3       0.628   1.883    0.000  -2.510  -0.000   0.000
   10    2    1    8    3       0.628   1.883    0.000  -2.510  -0.000   0.000
   11    2    1    8    3       0.628   1.883    0.000  -2.510  -0.000   0.000
   10    2    1    9    3       0.628   1.883    0.000  -2.510  -0.000   0.000
   11    2    1    9    3       0.628   1.883    0.000  -2.510  -0.000   0.000
   12    3    2   10    3       0.628   1.883    0.000  -2.510  -0.000   0.000
   13    3    2   10    3       0.628   1.883    0.000  -2.510  -0.000   0.000
   12    3    2   11    3       0.628   1.883    0.000  -2.510  -0.000   0.000
   13    3    2   11    3       0.628   1.883    0.000  -2.510  -0.000   0.000
   14    4    3   12    3       0.628   1.883    0.000  -2.510  -0.000   0.000
   15    4    3   12    3       0.628   1.883    0.000  -2.510  -0.000   0.000
   14    4    3   13    3       0.628   1.883    0.000  -2.510  -0.000   0.000
   15    4    3   13    3       0.628   1.883    0.000  -2.510  -0.000   0.000
   16    5    4   14    3       0.628   1.883    0.000  -2.510  -0.000   0.000
   17    5    4   14    3       0.628   1.883    0.000  -2.510  -0.000   0.000
   16    5    4   15    3       0.628   1.883    0.000  -2.510  -0.000   0.000
   17    5    4   15    3       0.628   1.883    0.000  -2.510  -0.000   0.000
   18    6    5   16    3       0.628   1.883    0.000  -2.510  -0.000   0.000
   19    6    5   16    3       0.628   1.883    0.000  -2.510  -0.000   0.000
   20    6    5   16    3       0.628   1.883    0.000  -2.510  -0.000   0.000
   18    6    5   17    3       0.628   1.883    0.000  -2.510  -0.000   0.000
   19    6    5   17    3       0.628   1.883    0.000  -2.510  -0.000   0.000
   20    6    5   17    3       0.628   1.883    0.000  -2.510  -0.000   0.000
[ dihedrals ]
;IMPROPER DIHEDRAL ANGLES
;  ai    aj   ak   al funct      c0       c1      c2      c3       c4     c5
[ pairs ]
;  ai    aj funct
    3    6    1
    3    7    1
    3    8    1
    3    9    1
    3   16    1
    3   17    1
    2    5    1
    2   14    1
    2   15    1
    4    1    1
    4   10    1
    4   11    1
    4   18    1
    4   19    1
    4   20    1
    5   12    1
    5   13    1
    6   14    1
    6   15    1
    1   12    1
    1   13    1
    7   10    1
    7   11    1
    8   10    1
    8   11    1
    9   10    1
    9   11    1
   10   12    1
   10   13    1
   11   12    1
   11   13    1
   12   14    1
   12   15    1
   13   14    1
   13   15    1
   14   16    1
   14   17    1
   15   16    1
   15   17    1
   16   18    1
   16   19    1
   16   20    1
   17   18    1
   17   19    1
   17   20    1
