;---------------------------------------------
;        Generated with LigParGen 
;        William L. Jorgensen Lab
;     Author: israel.cabezadevaca@yale.edu
;    OPLS Force Field with CM1A derived Atomic Charges
;---------------------------------------------
[ atomtypes ]
  opls_30001    CB    12.0110     0.000    A    3.50000E-01   3.34720E-01
  opls_30002    CB    12.0110     0.000    A    3.50000E-01   3.34720E-01
  opls_30003    CB    12.0110     0.000    A    3.50000E-01   3.34720E-01
  opls_30004    CB    12.0110     0.000    A    3.50000E-01   3.34720E-01
  opls_30005    CB    12.0110     0.000    A    3.50000E-01   3.34720E-01
  opls_30006    CA    12.0110     0.000    A    3.55000E-01   2.92880E-01
  opls_30007    CA    12.0110     0.000    A    3.55000E-01   2.92880E-01
  opls_30008    CT    12.0110     0.000    A    3.50000E-01   2.76144E-01
  opls_30009    CT    12.0110     0.000    A    3.50000E-01   2.76144E-01
  opls_30010    CT    12.0110     0.000    A    3.50000E-01   2.76144E-01
  opls_30011    CT    12.0110     0.000    A    3.50000E-01   2.76144E-01
  opls_30012    CA    12.0110     0.000    A    3.55000E-01   2.92880E-01
  opls_30013    CB    12.0110     0.000    A    3.50000E-01   3.34720E-01
  opls_30014    CB    12.0110     0.000    A    3.50000E-01   3.34720E-01
  opls_30015    CA    12.0110     0.000    A    3.55000E-01   2.92880E-01
  opls_30016    CA    12.0110     0.000    A    3.55000E-01   2.92880E-01
  opls_30017    CT    12.0110     0.000    A    3.50000E-01   2.76144E-01
  opls_30018    CT    12.0110     0.000    A    3.50000E-01   2.76144E-01
  opls_30019    CT    12.0110     0.000    A    3.50000E-01   2.76144E-01
  opls_30020    CT    12.0110     0.000    A    3.50000E-01   2.76144E-01
  opls_30021    CA    12.0110     0.000    A    3.55000E-01   2.92880E-01
  opls_30022    CB    12.0110     0.000    A    3.50000E-01   3.34720E-01
  opls_30023    CB    12.0110     0.000    A    3.50000E-01   3.34720E-01
  opls_30024    CB    12.0110     0.000    A    3.50000E-01   3.34720E-01
  opls_30025    CB    12.0110     0.000    A    3.50000E-01   3.34720E-01
  opls_30026    CB    12.0110     0.000    A    3.50000E-01   3.34720E-01
  opls_30027    CB    12.0110     0.000    A    3.50000E-01   3.34720E-01
  opls_30028    CA    12.0110     0.000    A    3.55000E-01   2.92880E-01
  opls_30029    CA    12.0110     0.000    A    3.55000E-01   2.92880E-01
  opls_30030    CT    12.0110     0.000    A    3.50000E-01   2.76144E-01
  opls_30031    CT    12.0110     0.000    A    3.50000E-01   2.76144E-01
  opls_30032    CT    12.0110     0.000    A    3.50000E-01   2.76144E-01
  opls_30033    CT    12.0110     0.000    A    3.50000E-01   2.76144E-01
  opls_30034    CA    12.0110     0.000    A    3.55000E-01   2.92880E-01
  opls_30035    CB    12.0110     0.000    A    3.50000E-01   3.34720E-01
  opls_30036    CB    12.0110     0.000    A    3.50000E-01   3.34720E-01
  opls_30037    CA    12.0110     0.000    A    3.55000E-01   2.92880E-01
  opls_30038    CA    12.0110     0.000    A    3.55000E-01   2.92880E-01
  opls_30039    CT    12.0110     0.000    A    3.50000E-01   2.76144E-01
  opls_30040    CT    12.0110     0.000    A    3.50000E-01   2.76144E-01
  opls_30041    CT    12.0110     0.000    A    3.50000E-01   2.76144E-01
  opls_30042    CT    12.0110     0.000    A    3.50000E-01   2.76144E-01
  opls_30043    CA    12.0110     0.000    A    3.55000E-01   2.92880E-01
  opls_30044    CB    12.0110     0.000    A    3.50000E-01   3.34720E-01
  opls_30045    CB    12.0110     0.000    A    3.50000E-01   3.34720E-01
  opls_30046    CB    12.0110     0.000    A    3.50000E-01   3.34720E-01
  opls_30047    CB    12.0110     0.000    A    3.50000E-01   3.34720E-01
  opls_30048    CB    12.0110     0.000    A    3.50000E-01   3.34720E-01
  opls_30049    CB    12.0110     0.000    A    3.50000E-01   3.34720E-01
  opls_30050    CA    12.0110     0.000    A    3.55000E-01   2.92880E-01
  opls_30051    CA    12.0110     0.000    A    3.55000E-01   2.92880E-01
  opls_30052    CT    12.0110     0.000    A    3.50000E-01   2.76144E-01
  opls_30053    CT    12.0110     0.000    A    3.50000E-01   2.76144E-01
  opls_30054    CT    12.0110     0.000    A    3.50000E-01   2.76144E-01
  opls_30055    CT    12.0110     0.000    A    3.50000E-01   2.76144E-01
  opls_30056    CA    12.0110     0.000    A    3.55000E-01   2.92880E-01
  opls_30057    CB    12.0110     0.000    A    3.50000E-01   3.34720E-01
  opls_30058    CB    12.0110     0.000    A    3.50000E-01   3.34720E-01
  opls_30059    CA    12.0110     0.000    A    3.55000E-01   2.92880E-01
  opls_30060    CA    12.0110     0.000    A    3.55000E-01   2.92880E-01
  opls_30061    CA    12.0110     0.000    A    3.55000E-01   2.92880E-01
  opls_30062    CB    12.0110     0.000    A    3.50000E-01   3.34720E-01
  opls_30063    CT    12.0110     0.000    A    3.50000E-01   2.76144E-01
  opls_30064    CT    12.0110     0.000    A    3.50000E-01   2.76144E-01
  opls_30065    CT    12.0110     0.000    A    3.50000E-01   2.76144E-01
  opls_30066    CT    12.0110     0.000    A    3.50000E-01   2.76144E-01
  opls_30067    HC     1.0080     0.000    A    2.50000E-01   1.25520E-01
  opls_30068    HC     1.0080     0.000    A    2.50000E-01   1.25520E-01
  opls_30069    HC     1.0080     0.000    A    2.50000E-01   1.25520E-01
  opls_30070    HC     1.0080     0.000    A    2.50000E-01   1.25520E-01
  opls_30071    HC     1.0080     0.000    A    2.50000E-01   1.25520E-01
  opls_30072    HC     1.0080     0.000    A    2.50000E-01   1.25520E-01
  opls_30073    HC     1.0080     0.000    A    2.50000E-01   1.25520E-01
  opls_30074    HC     1.0080     0.000    A    2.50000E-01   1.25520E-01
  opls_30075    HC     1.0080     0.000    A    2.50000E-01   1.25520E-01
  opls_30076    HA     1.0080     0.000    A    2.42000E-01   1.25520E-01
  opls_30077    HA     1.0080     0.000    A    2.42000E-01   1.25520E-01
  opls_30078    HC     1.0080     0.000    A    2.50000E-01   1.25520E-01
  opls_30079    HC     1.0080     0.000    A    2.50000E-01   1.25520E-01
  opls_30080    HC     1.0080     0.000    A    2.50000E-01   1.25520E-01
  opls_30081    HC     1.0080     0.000    A    2.50000E-01   1.25520E-01
  opls_30082    HC     1.0080     0.000    A    2.50000E-01   1.25520E-01
  opls_30083    HC     1.0080     0.000    A    2.50000E-01   1.25520E-01
  opls_30084    HC     1.0080     0.000    A    2.50000E-01   1.25520E-01
  opls_30085    HC     1.0080     0.000    A    2.50000E-01   1.25520E-01
  opls_30086    HC     1.0080     0.000    A    2.50000E-01   1.25520E-01
  opls_30087    HA     1.0080     0.000    A    2.42000E-01   1.25520E-01
  opls_30088    HA     1.0080     0.000    A    2.42000E-01   1.25520E-01
  opls_30089    HC     1.0080     0.000    A    2.50000E-01   1.25520E-01
  opls_30090    HC     1.0080     0.000    A    2.50000E-01   1.25520E-01
  opls_30091    HC     1.0080     0.000    A    2.50000E-01   1.25520E-01
  opls_30092    HC     1.0080     0.000    A    2.50000E-01   1.25520E-01
  opls_30093    HC     1.0080     0.000    A    2.50000E-01   1.25520E-01
  opls_30094    HC     1.0080     0.000    A    2.50000E-01   1.25520E-01
  opls_30095    HC     1.0080     0.000    A    2.50000E-01   1.25520E-01
  opls_30096    HC     1.0080     0.000    A    2.50000E-01   1.25520E-01
  opls_30097    HC     1.0080     0.000    A    2.50000E-01   1.25520E-01
  opls_30098    HA     1.0080     0.000    A    2.42000E-01   1.25520E-01
  opls_30099    HA     1.0080     0.000    A    2.42000E-01   1.25520E-01
  opls_30100    HC     1.0080     0.000    A    2.50000E-01   1.25520E-01
 opls_30101    HC     1.0080     0.000    A    2.50000E-01   1.25520E-01
 opls_30102    HC     1.0080     0.000    A    2.50000E-01   1.25520E-01
 opls_30103    HC     1.0080     0.000    A    2.50000E-01   1.25520E-01
 opls_30104    HC     1.0080     0.000    A    2.50000E-01   1.25520E-01
 opls_30105    HC     1.0080     0.000    A    2.50000E-01   1.25520E-01
 opls_30106    HC     1.0080     0.000    A    2.50000E-01   1.25520E-01
 opls_30107    HC     1.0080     0.000    A    2.50000E-01   1.25520E-01
 opls_30108    HC     1.0080     0.000    A    2.50000E-01   1.25520E-01
 opls_30109    HA     1.0080     0.000    A    2.42000E-01   1.25520E-01
 opls_30110    HA     1.0080     0.000    A    2.42000E-01   1.25520E-01
 opls_30111    HC     1.0080     0.000    A    2.50000E-01   1.25520E-01
 opls_30112    HC     1.0080     0.000    A    2.50000E-01   1.25520E-01
 opls_30113    HC     1.0080     0.000    A    2.50000E-01   1.25520E-01
 opls_30114    HC     1.0080     0.000    A    2.50000E-01   1.25520E-01
 opls_30115    HC     1.0080     0.000    A    2.50000E-01   1.25520E-01
 opls_30116    HC     1.0080     0.000    A    2.50000E-01   1.25520E-01
 opls_30117    HC     1.0080     0.000    A    2.50000E-01   1.25520E-01
 opls_30118    HC     1.0080     0.000    A    2.50000E-01   1.25520E-01
 opls_30119    HC     1.0080     0.000    A    2.50000E-01   1.25520E-01
 opls_30120    HA     1.0080     0.000    A    2.42000E-01   1.25520E-01
 opls_30121    HA     1.0080     0.000    A    2.42000E-01   1.25520E-01
 opls_30122    HC     1.0080     0.000    A    2.50000E-01   1.25520E-01
 opls_30123    HC     1.0080     0.000    A    2.50000E-01   1.25520E-01
 opls_30124    HC     1.0080     0.000    A    2.50000E-01   1.25520E-01
 opls_30125    HC     1.0080     0.000    A    2.50000E-01   1.25520E-01
 opls_30126    HC     1.0080     0.000    A    2.50000E-01   1.25520E-01
 opls_30127    HC     1.0080     0.000    A    2.50000E-01   1.25520E-01
 opls_30128    HC     1.0080     0.000    A    2.50000E-01   1.25520E-01
 opls_30129    HC     1.0080     0.000    A    2.50000E-01   1.25520E-01
 opls_30130    HC     1.0080     0.000    A    2.50000E-01   1.25520E-01
 opls_30131    HA     1.0080     0.000    A    2.42000E-01   1.25520E-01
 opls_30132    HA     1.0080     0.000    A    2.42000E-01   1.25520E-01

[ moleculetype ]
; Name               nrexcl
  HTB                  3

[ atoms ]
;   nr       type  resnr residue  atom   cgnr     charge       mass
     1   opls_30066      1    HTB   CBR      1    -0.2278    12.0110 
     2   opls_30067      1    HTB   HBR      1     0.0890     1.0080 
     3   opls_30068      1    HTB   HBS      1     0.0890     1.0080 
     4   opls_30069      1    HTB   HBT      1     0.0890     1.0080 
     5   opls_30063      1    HTB   CBQ      1    -0.0534    12.0110 
     6   opls_30064      1    HTB   CBS      1    -0.2275    12.0110 
     7   opls_30070      1    HTB   HBV      1     0.0892     1.0080 
     8   opls_30071      1    HTB   HBW      1     0.0892     1.0080 
     9   opls_30072      1    HTB   HBU      1     0.0892     1.0080 
    10   opls_30065      1    HTB   CBT      1    -0.2304    12.0110 
    11   opls_30073      1    HTB   HBY      1     0.0891     1.0080 
    12   opls_30074      1    HTB   HBZ      1     0.0891     1.0080 
    13   opls_30075      1    HTB   HBX      1     0.0891     1.0080 
    14   opls_30060      1    HTB   CBE      1    -0.0450    12.0110 
    15   opls_30061      1    HTB   CBD      1    -0.1331    12.0110 
    16   opls_30076      1    HTB   HBD      1     0.1499     1.0080 
    17   opls_30062      1    HTB   CBA      1    -0.0173    12.0110 
    18   opls_30002      1    HTB   CAP      1    -0.0130    12.0110 
    19   opls_30001      1    HTB   CAO      1    -0.0055    12.0110 
    20   opls_30003      1    HTB   CAT      1    -0.0071    12.0110 
    21   opls_30004      1    HTB   CAZ      1    -0.0130    12.0110 
    22   opls_30005      1    HTB   CBB      1    -0.0158    12.0110 
    23   opls_30006      1    HTB   CBN      1    -0.1347    12.0110 
    24   opls_30077      1    HTB   HBN      1     0.1495     1.0080 
    25   opls_30007      1    HTB   CBP      1    -0.0449    12.0110 
    26   opls_30008      1    HTB   CBU      1    -0.0522    12.0110 
    27   opls_30009      1    HTB   CBW      1    -0.2278    12.0110 
    28   opls_30078      1    HTB   HB4      1     0.0891     1.0080 
    29   opls_30079      1    HTB   HB5      1     0.0891     1.0080 
    30   opls_30080      1    HTB   HB3      1     0.0891     1.0080 
    31   opls_30010      1    HTB   CBX      1    -0.2310    12.0110 
    32   opls_30081      1    HTB   HB7      1     0.0893     1.0080 
    33   opls_30082      1    HTB   HB8      1     0.0893     1.0080 
    34   opls_30083      1    HTB   HB6      1     0.0893     1.0080 
    35   opls_30011      1    HTB   CBV      1    -0.2265    12.0110 
    36   opls_30084      1    HTB   HB1      1     0.0896     1.0080 
    37   opls_30085      1    HTB   HB2      1     0.0896     1.0080 
    38   opls_30086      1    HTB   HB0      1     0.0896     1.0080 
    39   opls_30012      1    HTB   CBO      1    -0.1339    12.0110 
    40   opls_30087      1    HTB   HBO      1     0.1491     1.0080 
    41   opls_30013      1    HTB   CAY      1    -0.0147    12.0110 
    42   opls_30014      1    HTB   CAX      1    -0.0157    12.0110 
    43   opls_30015      1    HTB   CBK      1    -0.1329    12.0110 
    44   opls_30088      1    HTB   HBK      1     0.1491     1.0080 
    45   opls_30016      1    HTB   CBL      1    -0.0455    12.0110 
    46   opls_30017      1    HTB   CCK      1    -0.0523    12.0110 
    47   opls_30018      1    HTB   CCM      1    -0.2273    12.0110 
    48   opls_30089      1    HTB   HC4      1     0.0889     1.0080 
    49   opls_30090      1    HTB   HC5      1     0.0889     1.0080 
    50   opls_30091      1    HTB   HC3      1     0.0889     1.0080 
    51   opls_30019      1    HTB   CCN      1    -0.2299    12.0110 
    52   opls_30092      1    HTB   HC7      1     0.0897     1.0080 
    53   opls_30093      1    HTB   HC8      1     0.0897     1.0080 
    54   opls_30094      1    HTB   HC6      1     0.0897     1.0080 
    55   opls_30020      1    HTB   CCL      1    -0.2274    12.0110 
    56   opls_30095      1    HTB   HC1      1     0.0892     1.0080 
    57   opls_30096      1    HTB   HC2      1     0.0892     1.0080 
    58   opls_30097      1    HTB   HC0      1     0.0892     1.0080 
    59   opls_30021      1    HTB   CBM      1    -0.1329    12.0110 
    60   opls_30098      1    HTB   HBM      1     0.1502     1.0080 
    61   opls_30022      1    HTB   CBG      1    -0.0173    12.0110 
    62   opls_30023      1    HTB   CAW      1    -0.0137    12.0110 
    63   opls_30024      1    HTB   CAS      1    -0.0072    12.0110 
    64   opls_30025      1    HTB   CAR      1    -0.0079    12.0110 
    65   opls_30026      1    HTB   CAV      1    -0.0125    12.0110 
    66   opls_30027      1    HTB   CBF      1    -0.0153    12.0110 
    67   opls_30028      1    HTB   CBH      1    -0.1333    12.0110 
    68   opls_30099      1    HTB   HBH      1     0.1492     1.0080 
    69   opls_30029      1    HTB   CBJ      1    -0.0454    12.0110 
    70   opls_30030      1    HTB   CCG      1    -0.0536    12.0110 
    71   opls_30031      1    HTB   CCI      1    -0.2267    12.0110 
    72   opls_30100      1    HTB   HCV      1     0.0892     1.0080 
    73  opls_30101      1    HTB   HCW      1     0.0892     1.0080 
    74  opls_30102      1    HTB   HCU      1     0.0892     1.0080 
    75   opls_30032      1    HTB   CCJ      1    -0.2304    12.0110 
    76  opls_30103      1    HTB   HCY      1     0.0894     1.0080 
    77  opls_30104      1    HTB   HCZ      1     0.0894     1.0080 
    78  opls_30105      1    HTB   HCX      1     0.0894     1.0080 
    79   opls_30033      1    HTB   CCH      1    -0.2277    12.0110 
    80  opls_30106      1    HTB   HCS      1     0.0893     1.0080 
    81  opls_30107      1    HTB   HCT      1     0.0893     1.0080 
    82  opls_30108      1    HTB   HCR      1     0.0893     1.0080 
    83   opls_30034      1    HTB   CBI      1    -0.1336    12.0110 
    84  opls_30109      1    HTB   HBI      1     0.1494     1.0080 
    85   opls_30035      1    HTB   CAU      1    -0.0179    12.0110 
    86   opls_30036      1    HTB   CAG      1    -0.0122    12.0110 
    87   opls_30037      1    HTB   CAH      1    -0.1337    12.0110 
    88  opls_30110      1    HTB   HAH      1     0.1494     1.0080 
    89   opls_30038      1    HTB   CAJ      1    -0.0459    12.0110 
    90   opls_30039      1    HTB   CCC      1    -0.0534    12.0110 
    91   opls_30040      1    HTB   CCE      1    -0.2275    12.0110 
    92  opls_30111      1    HTB   HCM      1     0.0890     1.0080 
    93  opls_30112      1    HTB   HCN      1     0.0890     1.0080 
    94  opls_30113      1    HTB   HCL      1     0.0890     1.0080 
    95   opls_30041      1    HTB   CCF      1    -0.2290    12.0110 
    96  opls_30114      1    HTB   HCP      1     0.0895     1.0080 
    97  opls_30115      1    HTB   HCQ      1     0.0895     1.0080 
    98  opls_30116      1    HTB   HCO      1     0.0895     1.0080 
    99   opls_30042      1    HTB   CCD      1    -0.2293    12.0110 
   100  opls_30117      1    HTB   HCJ      1     0.0894     1.0080 
   101  opls_30118      1    HTB   HCK      1     0.0894     1.0080 
   102  opls_30119      1    HTB   HCI      1     0.0894     1.0080 
   103   opls_30043      1    HTB   CAI      1    -0.1352    12.0110 
   104  opls_30120      1    HTB   HAI      1     0.1489     1.0080 
   105   opls_30044      1    HTB   CAE      1    -0.0128    12.0110 
   106   opls_30045      1    HTB   CAF      1    -0.0136    12.0110 
   107   opls_30046      1    HTB   CAD      1    -0.0069    12.0110 
   108   opls_30047      1    HTB   CAB      1    -0.0068    12.0110 
   109   opls_30048      1    HTB   CAC      1    -0.0150    12.0110 
   110   opls_30049      1    HTB   CAA      1    -0.0151    12.0110 
   111   opls_30050      1    HTB   CAK      1    -0.1317    12.0110 
   112  opls_30121      1    HTB   HAK      1     0.1474     1.0080 
   113   opls_30051      1    HTB   CAL      1    -0.0442    12.0110 
   114   opls_30052      1    HTB   CBY      1    -0.0524    12.0110 
   115   opls_30053      1    HTB   CCA      1    -0.2287    12.0110 
   116  opls_30122      1    HTB   HCD      1     0.0887     1.0080 
   117  opls_30123      1    HTB   HCE      1     0.0887     1.0080 
   118  opls_30124      1    HTB   HCC      1     0.0887     1.0080 
   119   opls_30054      1    HTB   CCB      1    -0.2292    12.0110 
   120  opls_30125      1    HTB   HCG      1     0.0896     1.0080 
   121  opls_30126      1    HTB   HCH      1     0.0896     1.0080 
   122  opls_30127      1    HTB   HCF      1     0.0896     1.0080 
   123   opls_30055      1    HTB   CBZ      1    -0.2292    12.0110 
   124  opls_30128      1    HTB   HCA      1     0.0893     1.0080 
   125  opls_30129      1    HTB   HCB      1     0.0893     1.0080 
   126  opls_30130      1    HTB   HB9      1     0.0893     1.0080 
   127   opls_30056      1    HTB   CAN      1    -0.1349    12.0110 
   128  opls_30131      1    HTB   HAN      1     0.1499     1.0080 
   129   opls_30057      1    HTB   CAM      1    -0.0167    12.0110 
   130   opls_30058      1    HTB   CAQ      1    -0.0151    12.0110 
   131   opls_30059      1    HTB   CBC      1    -0.1322    12.0110 
   132  opls_30132      1    HTB   HBC      1     0.1502     1.0080 

[ bonds ]
;  ai    aj   funct      c0       c1
   18   19    1      0.1370    435136.000
   20   19    1      0.1370    435136.000
   21   20    1      0.1370    435136.000
   22   21    1      0.1370    435136.000
   23   22    1      0.1404    392459.200
   25   23    1      0.1400    392459.200
   26   25    1      0.1510    265265.600
   27   26    1      0.1529    224262.400
   31   26    1      0.1529    224262.400
   35   26    1      0.1529    224262.400
   39   25    1      0.1400    392459.200
   41   21    1      0.1370    435136.000
   42   41    1      0.1370    435136.000
   43   42    1      0.1404    392459.200
   45   43    1      0.1400    392459.200
   46   45    1      0.1510    265265.600
   47   46    1      0.1529    224262.400
   51   46    1      0.1529    224262.400
   55   46    1      0.1529    224262.400
   59   45    1      0.1400    392459.200
   61   59    1      0.1404    392459.200
   62   42    1      0.1370    435136.000
   63   20    1      0.1370    435136.000
   64   63    1      0.1370    435136.000
   65   64    1      0.1370    435136.000
   66   61    1      0.1370    435136.000
   67   66    1      0.1404    392459.200
   69   67    1      0.1400    392459.200
   70   69    1      0.1510    265265.600
   71   70    1      0.1529    224262.400
   75   70    1      0.1529    224262.400
   79   70    1      0.1529    224262.400
   83   69    1      0.1400    392459.200
   85   65    1      0.1370    435136.000
   86   85    1      0.1370    435136.000
   87   86    1      0.1404    392459.200
   89   87    1      0.1400    392459.200
   90   89    1      0.1510    265265.600
   91   90    1      0.1529    224262.400
   95   90    1      0.1529    224262.400
   99   90    1      0.1529    224262.400
  103   89    1      0.1400    392459.200
  105  103    1      0.1404    392459.200
  106   86    1      0.1370    435136.000
  107   64    1      0.1370    435136.000
  108   19    1      0.1370    435136.000
  109  108    1      0.1370    435136.000
  110  105    1      0.1370    435136.000
  111  110    1      0.1404    392459.200
  113  111    1      0.1400    392459.200
  114  113    1      0.1510    265265.600
  115  114    1      0.1529    224262.400
  119  114    1      0.1529    224262.400
  123  114    1      0.1529    224262.400
  127  113    1      0.1400    392459.200
  129  109    1      0.1370    435136.000
  130   18    1      0.1370    435136.000
  131  130    1      0.1404    392459.200
   14  131    1      0.1400    392459.200
   15   14    1      0.1400    392459.200
   17   15    1      0.1404    392459.200
    5   14    1      0.1510    265265.600
    6    5    1      0.1529    224262.400
   10    5    1      0.1529    224262.400
    1    5    1      0.1529    224262.400
    2    1    1      0.1090    284512.000
    3    1    1      0.1090    284512.000
    4    1    1      0.1090    284512.000
    7    6    1      0.1090    284512.000
    8    6    1      0.1090    284512.000
    9    6    1      0.1090    284512.000
   11   10    1      0.1090    284512.000
   12   10    1      0.1090    284512.000
   13   10    1      0.1090    284512.000
   16   15    1      0.1080    307105.600
   24   23    1      0.1080    307105.600
   28   27    1      0.1090    284512.000
   29   27    1      0.1090    284512.000
   30   27    1      0.1090    284512.000
   32   31    1      0.1090    284512.000
   33   31    1      0.1090    284512.000
   34   31    1      0.1090    284512.000
   36   35    1      0.1090    284512.000
   37   35    1      0.1090    284512.000
   38   35    1      0.1090    284512.000
   40   39    1      0.1080    307105.600
   44   43    1      0.1080    307105.600
   48   47    1      0.1090    284512.000
   49   47    1      0.1090    284512.000
   50   47    1      0.1090    284512.000
   52   51    1      0.1090    284512.000
   53   51    1      0.1090    284512.000
   54   51    1      0.1090    284512.000
   56   55    1      0.1090    284512.000
   57   55    1      0.1090    284512.000
   58   55    1      0.1090    284512.000
   60   59    1      0.1080    307105.600
   68   67    1      0.1080    307105.600
   72   71    1      0.1090    284512.000
   73   71    1      0.1090    284512.000
   74   71    1      0.1090    284512.000
   76   75    1      0.1090    284512.000
   77   75    1      0.1090    284512.000
   78   75    1      0.1090    284512.000
   80   79    1      0.1090    284512.000
   81   79    1      0.1090    284512.000
   82   79    1      0.1090    284512.000
   84   83    1      0.1080    307105.600
   88   87    1      0.1080    307105.600
   92   91    1      0.1090    284512.000
   93   91    1      0.1090    284512.000
   94   91    1      0.1090    284512.000
   96   95    1      0.1090    284512.000
   97   95    1      0.1090    284512.000
   98   95    1      0.1090    284512.000
  100   99    1      0.1090    284512.000
  101   99    1      0.1090    284512.000
  102   99    1      0.1090    284512.000
  104  103    1      0.1080    307105.600
  112  111    1      0.1080    307105.600
  116  115    1      0.1090    284512.000
  117  115    1      0.1090    284512.000
  118  115    1      0.1090    284512.000
  120  119    1      0.1090    284512.000
  121  119    1      0.1090    284512.000
  122  119    1      0.1090    284512.000
  124  123    1      0.1090    284512.000
  125  123    1      0.1090    284512.000
  126  123    1      0.1090    284512.000
  128  127    1      0.1080    307105.600
  132  131    1      0.1080    307105.600
   41   39    1      0.1404    392459.200
   62   61    1      0.1370    435136.000
   63   62    1      0.1370    435136.000
   66   65    1      0.1370    435136.000
   85   83    1      0.1404    392459.200
  106  105    1      0.1370    435136.000
  107  106    1      0.1370    435136.000
  108  107    1      0.1370    435136.000
  110  109    1      0.1370    435136.000
  129  127    1      0.1404    392459.200
  130  129    1      0.1370    435136.000
   17   18    1      0.1370    435136.000
   17   22    1      0.1370    435136.000

[angles]
;  ai    aj   ak  funct      c0       c1 
   20   19   18    1       120.000    527.184
   21   20   19    1       120.000    527.184
   22   21   20    1       120.000    527.184
   23   22   21    1       117.300    711.280
   25   23   22    1       120.000    527.184
   26   25   23    1       120.000    585.760
   27   26   25    1       114.000    527.184
   31   26   25    1       114.000    527.184
   35   26   25    1       114.000    527.184
   39   25   23    1       120.000    527.184
   41   21   20    1       120.000    527.184
   42   41   21    1       120.000    527.184
   43   42   41    1       117.300    711.280
   45   43   42    1       120.000    527.184
   46   45   43    1       120.000    585.760
   47   46   45    1       114.000    527.184
   51   46   45    1       114.000    527.184
   55   46   45    1       114.000    527.184
   59   45   43    1       120.000    527.184
   61   59   45    1       120.000    527.184
   62   42   41    1       120.000    527.184
   63   20   19    1       120.000    527.184
   64   63   20    1       120.000    527.184
   65   64   63    1       120.000    527.184
   66   61   59    1       117.300    711.280
   67   66   61    1       117.300    711.280
   69   67   66    1       120.000    527.184
   70   69   67    1       120.000    585.760
   71   70   69    1       114.000    527.184
   75   70   69    1       114.000    527.184
   79   70   69    1       114.000    527.184
   83   69   67    1       120.000    527.184
   85   65   64    1       120.000    527.184
   86   85   65    1       120.000    527.184
   87   86   85    1       117.300    711.280
   89   87   86    1       120.000    527.184
   90   89   87    1       120.000    585.760
   91   90   89    1       114.000    527.184
   95   90   89    1       114.000    527.184
   99   90   89    1       114.000    527.184
  103   89   87    1       120.000    527.184
  105  103   89    1       120.000    527.184
  106   86   85    1       120.000    527.184
  107   64   63    1       120.000    527.184
  108   19   20    1       120.000    527.184
  109  108   19    1       120.000    527.184
  110  105  103    1       117.300    711.280
  111  110  105    1       117.300    711.280
  113  111  110    1       120.000    527.184
  114  113  111    1       120.000    585.760
  115  114  113    1       114.000    527.184
  119  114  113    1       114.000    527.184
  123  114  113    1       114.000    527.184
  127  113  111    1       120.000    527.184
  129  109  108    1       120.000    527.184
  130   18   19    1       120.000    527.184
  131  130   18    1       117.300    711.280
   14  131  130    1       120.000    527.184
   15   14  131    1       120.000    527.184
   17   15   14    1       120.000    527.184
    5   14   15    1       120.000    585.760
    6    5   14    1       114.000    527.184
   10    5   14    1       114.000    527.184
    1    5   14    1       114.000    527.184
    2    1    5    1       110.700    313.800
    3    1    5    1       110.700    313.800
    4    1    5    1       110.700    313.800
    7    6    5    1       110.700    313.800
    8    6    5    1       110.700    313.800
    9    6    5    1       110.700    313.800
   11   10    5    1       110.700    313.800
   12   10    5    1       110.700    313.800
   13   10    5    1       110.700    313.800
   16   15   14    1       120.000    292.880
   24   23   22    1       120.000    292.880
   28   27   26    1       110.700    313.800
   29   27   26    1       110.700    313.800
   30   27   26    1       110.700    313.800
   32   31   26    1       110.700    313.800
   33   31   26    1       110.700    313.800
   34   31   26    1       110.700    313.800
   36   35   26    1       110.700    313.800
   37   35   26    1       110.700    313.800
   38   35   26    1       110.700    313.800
   40   39   25    1       120.000    292.880
   44   43   42    1       120.000    292.880
   48   47   46    1       110.700    313.800
   49   47   46    1       110.700    313.800
   50   47   46    1       110.700    313.800
   52   51   46    1       110.700    313.800
   53   51   46    1       110.700    313.800
   54   51   46    1       110.700    313.800
   56   55   46    1       110.700    313.800
   57   55   46    1       110.700    313.800
   58   55   46    1       110.700    313.800
   60   59   45    1       120.000    292.880
   68   67   66    1       120.000    292.880
   72   71   70    1       110.700    313.800
   73   71   70    1       110.700    313.800
   74   71   70    1       110.700    313.800
   76   75   70    1       110.700    313.800
   77   75   70    1       110.700    313.800
   78   75   70    1       110.700    313.800
   80   79   70    1       110.700    313.800
   81   79   70    1       110.700    313.800
   82   79   70    1       110.700    313.800
   84   83   69    1       120.000    292.880
   88   87   86    1       120.000    292.880
   92   91   90    1       110.700    313.800
   93   91   90    1       110.700    313.800
   94   91   90    1       110.700    313.800
   96   95   90    1       110.700    313.800
   97   95   90    1       110.700    313.800
   98   95   90    1       110.700    313.800
  100   99   90    1       110.700    313.800
  101   99   90    1       110.700    313.800
  102   99   90    1       110.700    313.800
  104  103   89    1       120.000    292.880
  112  111  110    1       120.000    292.880
  116  115  114    1       110.700    313.800
  117  115  114    1       110.700    313.800
  118  115  114    1       110.700    313.800
  120  119  114    1       110.700    313.800
  121  119  114    1       110.700    313.800
  122  119  114    1       110.700    313.800
  124  123  114    1       110.700    313.800
  125  123  114    1       110.700    313.800
  126  123  114    1       110.700    313.800
  128  127  113    1       120.000    292.880
  132  131   14    1       120.000    292.880
  108   19   18    1       120.000    527.184
   63   20   21    1       120.000    527.184
   41   21   22    1       120.000    527.184
   17   22   23    1       117.300    711.280
   24   23   25    1       120.000    292.880
   39   25   26    1       120.000    585.760
   31   26   27    1       112.700    488.273
   35   26   27    1       112.700    488.273
   35   26   31    1       112.700    488.273
   25   39   41    1       120.000    527.184
   40   39   41    1       120.000    292.880
   39   41   42    1       117.300    711.280
   62   42   43    1       117.300    711.280
   44   43   45    1       120.000    292.880
   59   45   46    1       120.000    585.760
   51   46   47    1       112.700    488.273
   55   46   47    1       112.700    488.273
   55   46   51    1       112.700    488.273
   60   59   61    1       120.000    292.880
   59   61   62    1       117.300    711.280
   66   61   62    1       120.000    527.184
   42   62   63    1       120.000    527.184
   61   62   63    1       120.000    527.184
   62   63   64    1       120.000    527.184
  107   64   65    1       120.000    527.184
   64   65   66    1       120.000    527.184
   85   65   66    1       120.000    527.184
   65   66   67    1       117.300    711.280
   68   67   69    1       120.000    292.880
   83   69   70    1       120.000    585.760
   75   70   71    1       112.700    488.273
   79   70   71    1       112.700    488.273
   79   70   75    1       112.700    488.273
   69   83   85    1       120.000    527.184
   84   83   85    1       120.000    292.880
   83   85   86    1       117.300    711.280
  106   86   87    1       117.300    711.280
   88   87   89    1       120.000    292.880
  103   89   90    1       120.000    585.760
   95   90   91    1       112.700    488.273
   99   90   91    1       112.700    488.273
   99   90   95    1       112.700    488.273
  104  103  105    1       120.000    292.880
  103  105  106    1       117.300    711.280
  110  105  106    1       120.000    527.184
   86  106  107    1       120.000    527.184
  105  106  107    1       120.000    527.184
   64  107  108    1       120.000    527.184
  106  107  108    1       120.000    527.184
  107  108  109    1       120.000    527.184
  108  109  110    1       120.000    527.184
  129  109  110    1       120.000    527.184
  109  110  111    1       117.300    711.280
  112  111  113    1       120.000    292.880
  127  113  114    1       120.000    585.760
  119  114  115    1       112.700    488.273
  123  114  115    1       112.700    488.273
  123  114  119    1       112.700    488.273
  113  127  129    1       120.000    527.184
  128  127  129    1       120.000    292.880
   17   18  130    1       120.000    527.184
  109  129  130    1       120.000    527.184
  127  129  130    1       117.300    711.280
  129  130  131    1       117.300    711.280
   16   15   17    1       120.000    292.880
   19   18   17    1       120.000    527.184
   21   22   17    1       120.000    527.184
  131   14    5    1       120.000    585.760
    1    5    6    1       112.700    488.273
   10    5    6    1       112.700    488.273
    1    5   10    1       112.700    488.273
    3    1    2    1       107.800    276.144
    4    1    2    1       107.800    276.144
    4    1    3    1       107.800    276.144
    8    6    7    1       107.800    276.144
    9    6    7    1       107.800    276.144
    9    6    8    1       107.800    276.144
   12   10   11    1       107.800    276.144
   13   10   11    1       107.800    276.144
   13   10   12    1       107.800    276.144
   29   27   28    1       107.800    276.144
   30   27   28    1       107.800    276.144
   30   27   29    1       107.800    276.144
   33   31   32    1       107.800    276.144
   34   31   32    1       107.800    276.144
   34   31   33    1       107.800    276.144
   37   35   36    1       107.800    276.144
   38   35   36    1       107.800    276.144
   38   35   37    1       107.800    276.144
   49   47   48    1       107.800    276.144
   50   47   48    1       107.800    276.144
   50   47   49    1       107.800    276.144
   53   51   52    1       107.800    276.144
   54   51   52    1       107.800    276.144
   54   51   53    1       107.800    276.144
   57   55   56    1       107.800    276.144
   58   55   56    1       107.800    276.144
   58   55   57    1       107.800    276.144
   73   71   72    1       107.800    276.144
   74   71   72    1       107.800    276.144
   74   71   73    1       107.800    276.144
   77   75   76    1       107.800    276.144
   78   75   76    1       107.800    276.144
   78   75   77    1       107.800    276.144
   81   79   80    1       107.800    276.144
   82   79   80    1       107.800    276.144
   82   79   81    1       107.800    276.144
   93   91   92    1       107.800    276.144
   94   91   92    1       107.800    276.144
   94   91   93    1       107.800    276.144
   97   95   96    1       107.800    276.144
   98   95   96    1       107.800    276.144
   98   95   97    1       107.800    276.144
  101   99  100    1       107.800    276.144
  102   99  100    1       107.800    276.144
  102   99  101    1       107.800    276.144
  117  115  116    1       107.800    276.144
  118  115  116    1       107.800    276.144
  118  115  117    1       107.800    276.144
  121  119  120    1       107.800    276.144
  122  119  120    1       107.800    276.144
  122  119  121    1       107.800    276.144
  125  123  124    1       107.800    276.144
  126  123  124    1       107.800    276.144
  126  123  125    1       107.800    276.144
  130  131  132    1       120.000    292.880
   21   41   39    1       117.300    711.280
   42   62   61    1       120.000    527.184
   20   63   62    1       120.000    527.184
   61   66   65    1       120.000    527.184
   65   85   83    1       117.300    711.280
   86  106  105    1       120.000    527.184
   64  107  106    1       120.000    527.184
   19  108  107    1       120.000    527.184
  105  110  109    1       120.000    527.184
  109  129  127    1       117.300    711.280
   18  130  129    1       120.000    527.184
   15   17   18    1       117.300    711.280
   15   17   22    1       117.300    711.280
   18   17   22    1       120.000    527.184
[ dihedrals ]
;  PROPER DIHEDRAL ANGLES
;  ai    aj   ak   al funct      c0       c1      c2      c3       c4     c5
   21   20   19   18    3      30.334   0.000  -30.334  -0.000  -0.000   0.000
   22   21   20   19    3      30.334   0.000  -30.334  -0.000  -0.000   0.000
   23   22   21   20    3      30.334   0.000  -30.334  -0.000  -0.000   0.000
   25   23   22   21    3      30.334   0.000  -30.334  -0.000  -0.000   0.000
   26   25   23   22    3      30.334   0.000  -30.334  -0.000  -0.000   0.000
   27   26   25   23    3      -0.523   0.523    0.000  -0.000  -0.000   0.000
   31   26   25   23    3      -0.523   0.523    0.000  -0.000  -0.000   0.000
   35   26   25   23    3      -0.523   0.523    0.000  -0.000  -0.000   0.000
   39   25   23   22    3      30.334   0.000  -30.334  -0.000  -0.000   0.000
   41   21   20   19    3      30.334   0.000  -30.334  -0.000  -0.000   0.000
   42   41   21   20    3      30.334   0.000  -30.334  -0.000  -0.000   0.000
   43   42   41   21    3      30.334   0.000  -30.334  -0.000  -0.000   0.000
   45   43   42   41    3      30.334   0.000  -30.334  -0.000  -0.000   0.000
   46   45   43   42    3      30.334   0.000  -30.334  -0.000  -0.000   0.000
   47   46   45   43    3      -0.523   0.523    0.000  -0.000  -0.000   0.000
   51   46   45   43    3      -0.523   0.523    0.000  -0.000  -0.000   0.000
   55   46   45   43    3      -0.523   0.523    0.000  -0.000  -0.000   0.000
   59   45   43   42    3      30.334   0.000  -30.334  -0.000  -0.000   0.000
   61   59   45   43    3      30.334   0.000  -30.334  -0.000  -0.000   0.000
   62   42   41   21    3      30.334   0.000  -30.334  -0.000  -0.000   0.000
   63   20   19   18    3      30.334   0.000  -30.334  -0.000  -0.000   0.000
   64   63   20   19    3      30.334   0.000  -30.334  -0.000  -0.000   0.000
   65   64   63   20    3      30.334   0.000  -30.334  -0.000  -0.000   0.000
   66   61   59   45    3      30.334   0.000  -30.334  -0.000  -0.000   0.000
   67   66   61   59    3      30.334   0.000  -30.334  -0.000  -0.000   0.000
   69   67   66   61    3      30.334   0.000  -30.334  -0.000  -0.000   0.000
   70   69   67   66    3      30.334   0.000  -30.334  -0.000  -0.000   0.000
   71   70   69   67    3      -0.523   0.523    0.000  -0.000  -0.000   0.000
   75   70   69   67    3      -0.523   0.523    0.000  -0.000  -0.000   0.000
   79   70   69   67    3      -0.523   0.523    0.000  -0.000  -0.000   0.000
   83   69   67   66    3      30.334   0.000  -30.334  -0.000  -0.000   0.000
   85   65   64   63    3      30.334   0.000  -30.334  -0.000  -0.000   0.000
   86   85   65   64    3      30.334   0.000  -30.334  -0.000  -0.000   0.000
   87   86   85   65    3      30.334   0.000  -30.334  -0.000  -0.000   0.000
   89   87   86   85    3      30.334   0.000  -30.334  -0.000  -0.000   0.000
   90   89   87   86    3      30.334   0.000  -30.334  -0.000  -0.000   0.000
   91   90   89   87    3      -0.523   0.523    0.000  -0.000  -0.000   0.000
   95   90   89   87    3      -0.523   0.523    0.000  -0.000  -0.000   0.000
   99   90   89   87    3      -0.523   0.523    0.000  -0.000  -0.000   0.000
  103   89   87   86    3      30.334   0.000  -30.334  -0.000  -0.000   0.000
  105  103   89   87    3      30.334   0.000  -30.334  -0.000  -0.000   0.000
  106   86   85   65    3      30.334   0.000  -30.334  -0.000  -0.000   0.000
  107   64   63   20    3      30.334   0.000  -30.334  -0.000  -0.000   0.000
  108   19   20   21    3      30.334   0.000  -30.334  -0.000  -0.000   0.000
  109  108   19   18    3      30.334   0.000  -30.334  -0.000  -0.000   0.000
  110  105  103   89    3      30.334   0.000  -30.334  -0.000  -0.000   0.000
  111  110  105  103    3      30.334   0.000  -30.334  -0.000  -0.000   0.000
  113  111  110  105    3      30.334   0.000  -30.334  -0.000  -0.000   0.000
  114  113  111  110    3      30.334   0.000  -30.334  -0.000  -0.000   0.000
  115  114  113  111    3      -0.523   0.523    0.000  -0.000  -0.000   0.000
  119  114  113  111    3      -0.523   0.523    0.000  -0.000  -0.000   0.000
  123  114  113  111    3      -0.523   0.523    0.000  -0.000  -0.000   0.000
  127  113  111  110    3      30.334   0.000  -30.334  -0.000  -0.000   0.000
  129  109  108   19    3      30.334   0.000  -30.334  -0.000  -0.000   0.000
  130   18   19   20    3      30.334   0.000  -30.334  -0.000  -0.000   0.000
  131  130   18   19    3      30.334   0.000  -30.334  -0.000  -0.000   0.000
   14  131  130   18    3      30.334   0.000  -30.334  -0.000  -0.000   0.000
   15   14  131  130    3      30.334   0.000  -30.334  -0.000  -0.000   0.000
   17   15   14  131    3      30.334   0.000  -30.334  -0.000  -0.000   0.000
    5   14   15   17    3      30.334   0.000  -30.334  -0.000  -0.000   0.000
    6    5   14   15    3      -0.523   0.523    0.000  -0.000  -0.000   0.000
   10    5   14   15    3      -0.523   0.523    0.000  -0.000  -0.000   0.000
    1    5   14   15    3      -0.523   0.523    0.000  -0.000  -0.000   0.000
    2    1    5    6    3       0.628   1.883    0.000  -2.510  -0.000   0.000
    3    1    5    6    3       0.628   1.883    0.000  -2.510  -0.000   0.000
    4    1    5    6    3       0.628   1.883    0.000  -2.510  -0.000   0.000
    7    6    5    1    3       0.628   1.883    0.000  -2.510  -0.000   0.000
    8    6    5    1    3       0.628   1.883    0.000  -2.510  -0.000   0.000
    9    6    5    1    3       0.628   1.883    0.000  -2.510  -0.000   0.000
   11   10    5    1    3       0.628   1.883    0.000  -2.510  -0.000   0.000
   12   10    5    1    3       0.628   1.883    0.000  -2.510  -0.000   0.000
   13   10    5    1    3       0.628   1.883    0.000  -2.510  -0.000   0.000
   16   15   14    5    3      30.334   0.000  -30.334  -0.000  -0.000   0.000
   24   23   22   17    3      30.334   0.000  -30.334  -0.000  -0.000   0.000
   28   27   26   25    3       0.967   2.900    0.000  -3.866  -0.000   0.000
   29   27   26   25    3       0.967   2.900    0.000  -3.866  -0.000   0.000
   30   27   26   25    3       0.967   2.900    0.000  -3.866  -0.000   0.000
   32   31   26   25    3       0.967   2.900    0.000  -3.866  -0.000   0.000
   33   31   26   25    3       0.967   2.900    0.000  -3.866  -0.000   0.000
   34   31   26   25    3       0.967   2.900    0.000  -3.866  -0.000   0.000
   36   35   26   25    3       0.967   2.900    0.000  -3.866  -0.000   0.000
   37   35   26   25    3       0.967   2.900    0.000  -3.866  -0.000   0.000
   38   35   26   25    3       0.967   2.900    0.000  -3.866  -0.000   0.000
   40   39   25   23    3      30.334   0.000  -30.334  -0.000  -0.000   0.000
   44   43   42   41    3      30.334   0.000  -30.334  -0.000  -0.000   0.000
   48   47   46   45    3       0.967   2.900    0.000  -3.866  -0.000   0.000
   49   47   46   45    3       0.967   2.900    0.000  -3.866  -0.000   0.000
   50   47   46   45    3       0.967   2.900    0.000  -3.866  -0.000   0.000
   52   51   46   45    3       0.967   2.900    0.000  -3.866  -0.000   0.000
   53   51   46   45    3       0.967   2.900    0.000  -3.866  -0.000   0.000
   54   51   46   45    3       0.967   2.900    0.000  -3.866  -0.000   0.000
   56   55   46   45    3       0.967   2.900    0.000  -3.866  -0.000   0.000
   57   55   46   45    3       0.967   2.900    0.000  -3.866  -0.000   0.000
   58   55   46   45    3       0.967   2.900    0.000  -3.866  -0.000   0.000
   60   59   45   43    3      30.334   0.000  -30.334  -0.000  -0.000   0.000
   68   67   66   61    3      30.334   0.000  -30.334  -0.000  -0.000   0.000
   72   71   70   69    3       0.967   2.900    0.000  -3.866  -0.000   0.000
   73   71   70   69    3       0.967   2.900    0.000  -3.866  -0.000   0.000
   74   71   70   69    3       0.967   2.900    0.000  -3.866  -0.000   0.000
   76   75   70   69    3       0.967   2.900    0.000  -3.866  -0.000   0.000
   77   75   70   69    3       0.967   2.900    0.000  -3.866  -0.000   0.000
   78   75   70   69    3       0.967   2.900    0.000  -3.866  -0.000   0.000
   80   79   70   69    3       0.967   2.900    0.000  -3.866  -0.000   0.000
   81   79   70   69    3       0.967   2.900    0.000  -3.866  -0.000   0.000
   82   79   70   69    3       0.967   2.900    0.000  -3.866  -0.000   0.000
   84   83   69   67    3      30.334   0.000  -30.334  -0.000  -0.000   0.000
   88   87   86   85    3      30.334   0.000  -30.334  -0.000  -0.000   0.000
   92   91   90   89    3       0.967   2.900    0.000  -3.866  -0.000   0.000
   93   91   90   89    3       0.967   2.900    0.000  -3.866  -0.000   0.000
   94   91   90   89    3       0.967   2.900    0.000  -3.866  -0.000   0.000
   96   95   90   89    3       0.967   2.900    0.000  -3.866  -0.000   0.000
   97   95   90   89    3       0.967   2.900    0.000  -3.866  -0.000   0.000
   98   95   90   89    3       0.967   2.900    0.000  -3.866  -0.000   0.000
  100   99   90   89    3       0.967   2.900    0.000  -3.866  -0.000   0.000
  101   99   90   89    3       0.967   2.900    0.000  -3.866  -0.000   0.000
  102   99   90   89    3       0.967   2.900    0.000  -3.866  -0.000   0.000
  104  103   89   87    3      30.334   0.000  -30.334  -0.000  -0.000   0.000
  112  111  110  105    3      30.334   0.000  -30.334  -0.000  -0.000   0.000
  116  115  114  113    3       0.967   2.900    0.000  -3.866  -0.000   0.000
  117  115  114  113    3       0.967   2.900    0.000  -3.866  -0.000   0.000
  118  115  114  113    3       0.967   2.900    0.000  -3.866  -0.000   0.000
  120  119  114  113    3       0.967   2.900    0.000  -3.866  -0.000   0.000
  121  119  114  113    3       0.967   2.900    0.000  -3.866  -0.000   0.000
  122  119  114  113    3       0.967   2.900    0.000  -3.866  -0.000   0.000
  124  123  114  113    3       0.967   2.900    0.000  -3.866  -0.000   0.000
  125  123  114  113    3       0.967   2.900    0.000  -3.866  -0.000   0.000
  126  123  114  113    3       0.967   2.900    0.000  -3.866  -0.000   0.000
  128  127  113  111    3      30.334   0.000  -30.334  -0.000  -0.000   0.000
  132  131   14    5    3      30.334   0.000  -30.334  -0.000  -0.000   0.000
  107  108   19   18    3      30.334   0.000  -30.334  -0.000  -0.000   0.000
   17   18   19   20    3      30.334   0.000  -30.334  -0.000  -0.000   0.000
  107  108   19   20    3      30.334   0.000  -30.334  -0.000  -0.000   0.000
  109  108   19   20    3      30.334   0.000  -30.334  -0.000  -0.000   0.000
   62   63   20   21    3      30.334   0.000  -30.334  -0.000  -0.000   0.000
   64   63   20   21    3      30.334   0.000  -30.334  -0.000  -0.000   0.000
   63   20   21   22    3      30.334   0.000  -30.334  -0.000  -0.000   0.000
   39   41   21   22    3      30.334   0.000  -30.334  -0.000  -0.000   0.000
   42   41   21   22    3      30.334   0.000  -30.334  -0.000  -0.000   0.000
   15   17   22   23    3      30.334   0.000  -30.334  -0.000  -0.000   0.000
   18   17   22   23    3      30.334   0.000  -30.334  -0.000  -0.000   0.000
   41   21   22   23    3      30.334   0.000  -30.334  -0.000  -0.000   0.000
   17   22   23   25    3      30.334   0.000  -30.334  -0.000  -0.000   0.000
   24   23   25   26    3      30.334   0.000  -30.334  -0.000  -0.000   0.000
   40   39   25   26    3      30.334   0.000  -30.334  -0.000  -0.000   0.000
   41   39   25   26    3      30.334   0.000  -30.334  -0.000  -0.000   0.000
   39   25   26   27    3      -0.523   0.523    0.000  -0.000  -0.000   0.000
   32   31   26   27    3       0.628   1.883    0.000  -2.510  -0.000   0.000
   33   31   26   27    3       0.628   1.883    0.000  -2.510  -0.000   0.000
   34   31   26   27    3       0.628   1.883    0.000  -2.510  -0.000   0.000
   36   35   26   27    3       0.628   1.883    0.000  -2.510  -0.000   0.000
   37   35   26   27    3       0.628   1.883    0.000  -2.510  -0.000   0.000
   38   35   26   27    3       0.628   1.883    0.000  -2.510  -0.000   0.000
   39   25   26   31    3      -0.523   0.523    0.000  -0.000  -0.000   0.000
   28   27   26   31    3       0.628   1.883    0.000  -2.510  -0.000   0.000
   29   27   26   31    3       0.628   1.883    0.000  -2.510  -0.000   0.000
   30   27   26   31    3       0.628   1.883    0.000  -2.510  -0.000   0.000
   36   35   26   31    3       0.628   1.883    0.000  -2.510  -0.000   0.000
   37   35   26   31    3       0.628   1.883    0.000  -2.510  -0.000   0.000
   38   35   26   31    3       0.628   1.883    0.000  -2.510  -0.000   0.000
   39   25   26   35    3      -0.523   0.523    0.000  -0.000  -0.000   0.000
   28   27   26   35    3       0.628   1.883    0.000  -2.510  -0.000   0.000
   29   27   26   35    3       0.628   1.883    0.000  -2.510  -0.000   0.000
   30   27   26   35    3       0.628   1.883    0.000  -2.510  -0.000   0.000
   32   31   26   35    3       0.628   1.883    0.000  -2.510  -0.000   0.000
   33   31   26   35    3       0.628   1.883    0.000  -2.510  -0.000   0.000
   34   31   26   35    3       0.628   1.883    0.000  -2.510  -0.000   0.000
   24   23   25   39    3      30.334   0.000  -30.334  -0.000  -0.000   0.000
   63   20   21   41    3      30.334   0.000  -30.334  -0.000  -0.000   0.000
   17   22   21   41    3      30.334   0.000  -30.334  -0.000  -0.000   0.000
   23   25   39   41    3      30.334   0.000  -30.334  -0.000  -0.000   0.000
   25   39   41   42    3      30.334   0.000  -30.334  -0.000  -0.000   0.000
   40   39   41   42    3      30.334   0.000  -30.334  -0.000  -0.000   0.000
   39   41   42   43    3      30.334   0.000  -30.334  -0.000  -0.000   0.000
   61   62   42   43    3      30.334   0.000  -30.334  -0.000  -0.000   0.000
   63   62   42   43    3      30.334   0.000  -30.334  -0.000  -0.000   0.000
   62   42   43   45    3      30.334   0.000  -30.334  -0.000  -0.000   0.000
   44   43   45   46    3      30.334   0.000  -30.334  -0.000  -0.000   0.000
   60   59   45   46    3      30.334   0.000  -30.334  -0.000  -0.000   0.000
   61   59   45   46    3      30.334   0.000  -30.334  -0.000  -0.000   0.000
   59   45   46   47    3      -0.523   0.523    0.000  -0.000  -0.000   0.000
   52   51   46   47    3       0.628   1.883    0.000  -2.510  -0.000   0.000
   53   51   46   47    3       0.628   1.883    0.000  -2.510  -0.000   0.000
   54   51   46   47    3       0.628   1.883    0.000  -2.510  -0.000   0.000
   56   55   46   47    3       0.628   1.883    0.000  -2.510  -0.000   0.000
   57   55   46   47    3       0.628   1.883    0.000  -2.510  -0.000   0.000
   58   55   46   47    3       0.628   1.883    0.000  -2.510  -0.000   0.000
   59   45   46   51    3      -0.523   0.523    0.000  -0.000  -0.000   0.000
   48   47   46   51    3       0.628   1.883    0.000  -2.510  -0.000   0.000
   49   47   46   51    3       0.628   1.883    0.000  -2.510  -0.000   0.000
   50   47   46   51    3       0.628   1.883    0.000  -2.510  -0.000   0.000
   56   55   46   51    3       0.628   1.883    0.000  -2.510  -0.000   0.000
   57   55   46   51    3       0.628   1.883    0.000  -2.510  -0.000   0.000
   58   55   46   51    3       0.628   1.883    0.000  -2.510  -0.000   0.000
   59   45   46   55    3      -0.523   0.523    0.000  -0.000  -0.000   0.000
   48   47   46   55    3       0.628   1.883    0.000  -2.510  -0.000   0.000
   49   47   46   55    3       0.628   1.883    0.000  -2.510  -0.000   0.000
   50   47   46   55    3       0.628   1.883    0.000  -2.510  -0.000   0.000
   52   51   46   55    3       0.628   1.883    0.000  -2.510  -0.000   0.000
   53   51   46   55    3       0.628   1.883    0.000  -2.510  -0.000   0.000
   54   51   46   55    3       0.628   1.883    0.000  -2.510  -0.000   0.000
   44   43   45   59    3      30.334   0.000  -30.334  -0.000  -0.000   0.000
   39   41   42   62    3      30.334   0.000  -30.334  -0.000  -0.000   0.000
   44   43   42   62    3      30.334   0.000  -30.334  -0.000  -0.000   0.000
   45   59   61   62    3      30.334   0.000  -30.334  -0.000  -0.000   0.000
   60   59   61   62    3      30.334   0.000  -30.334  -0.000  -0.000   0.000
   65   66   61   62    3      30.334   0.000  -30.334  -0.000  -0.000   0.000
   67   66   61   62    3      30.334   0.000  -30.334  -0.000  -0.000   0.000
  108   19   20   63    3      30.334   0.000  -30.334  -0.000  -0.000   0.000
   41   42   62   63    3      30.334   0.000  -30.334  -0.000  -0.000   0.000
   59   61   62   63    3      30.334   0.000  -30.334  -0.000  -0.000   0.000
   66   61   62   63    3      30.334   0.000  -30.334  -0.000  -0.000   0.000
   42   62   63   64    3      30.334   0.000  -30.334  -0.000  -0.000   0.000
   61   62   63   64    3      30.334   0.000  -30.334  -0.000  -0.000   0.000
   62   63   64   65    3      30.334   0.000  -30.334  -0.000  -0.000   0.000
  106  107   64   65    3      30.334   0.000  -30.334  -0.000  -0.000   0.000
  108  107   64   65    3      30.334   0.000  -30.334  -0.000  -0.000   0.000
   60   59   61   66    3      30.334   0.000  -30.334  -0.000  -0.000   0.000
   42   62   61   66    3      30.334   0.000  -30.334  -0.000  -0.000   0.000
   63   64   65   66    3      30.334   0.000  -30.334  -0.000  -0.000   0.000
  107   64   65   66    3      30.334   0.000  -30.334  -0.000  -0.000   0.000
   83   85   65   66    3      30.334   0.000  -30.334  -0.000  -0.000   0.000
   86   85   65   66    3      30.334   0.000  -30.334  -0.000  -0.000   0.000
   64   65   66   67    3      30.334   0.000  -30.334  -0.000  -0.000   0.000
   85   65   66   67    3      30.334   0.000  -30.334  -0.000  -0.000   0.000
   65   66   67   69    3      30.334   0.000  -30.334  -0.000  -0.000   0.000
   68   67   69   70    3      30.334   0.000  -30.334  -0.000  -0.000   0.000
   84   83   69   70    3      30.334   0.000  -30.334  -0.000  -0.000   0.000
   85   83   69   70    3      30.334   0.000  -30.334  -0.000  -0.000   0.000
   83   69   70   71    3      -0.523   0.523    0.000  -0.000  -0.000   0.000
   76   75   70   71    3       0.628   1.883    0.000  -2.510  -0.000   0.000
   77   75   70   71    3       0.628   1.883    0.000  -2.510  -0.000   0.000
   78   75   70   71    3       0.628   1.883    0.000  -2.510  -0.000   0.000
   80   79   70   71    3       0.628   1.883    0.000  -2.510  -0.000   0.000
   81   79   70   71    3       0.628   1.883    0.000  -2.510  -0.000   0.000
   82   79   70   71    3       0.628   1.883    0.000  -2.510  -0.000   0.000
   83   69   70   75    3      -0.523   0.523    0.000  -0.000  -0.000   0.000
   72   71   70   75    3       0.628   1.883    0.000  -2.510  -0.000   0.000
   73   71   70   75    3       0.628   1.883    0.000  -2.510  -0.000   0.000
   74   71   70   75    3       0.628   1.883    0.000  -2.510  -0.000   0.000
   80   79   70   75    3       0.628   1.883    0.000  -2.510  -0.000   0.000
   81   79   70   75    3       0.628   1.883    0.000  -2.510  -0.000   0.000
   82   79   70   75    3       0.628   1.883    0.000  -2.510  -0.000   0.000
   83   69   70   79    3      -0.523   0.523    0.000  -0.000  -0.000   0.000
   72   71   70   79    3       0.628   1.883    0.000  -2.510  -0.000   0.000
   73   71   70   79    3       0.628   1.883    0.000  -2.510  -0.000   0.000
   74   71   70   79    3       0.628   1.883    0.000  -2.510  -0.000   0.000
   76   75   70   79    3       0.628   1.883    0.000  -2.510  -0.000   0.000
   77   75   70   79    3       0.628   1.883    0.000  -2.510  -0.000   0.000
   78   75   70   79    3       0.628   1.883    0.000  -2.510  -0.000   0.000
   68   67   69   83    3      30.334   0.000  -30.334  -0.000  -0.000   0.000
  107   64   65   85    3      30.334   0.000  -30.334  -0.000  -0.000   0.000
   61   66   65   85    3      30.334   0.000  -30.334  -0.000  -0.000   0.000
   67   69   83   85    3      30.334   0.000  -30.334  -0.000  -0.000   0.000
   69   83   85   86    3      30.334   0.000  -30.334  -0.000  -0.000   0.000
   84   83   85   86    3      30.334   0.000  -30.334  -0.000  -0.000   0.000
   83   85   86   87    3      30.334   0.000  -30.334  -0.000  -0.000   0.000
  105  106   86   87    3      30.334   0.000  -30.334  -0.000  -0.000   0.000
  107  106   86   87    3      30.334   0.000  -30.334  -0.000  -0.000   0.000
  106   86   87   89    3      30.334   0.000  -30.334  -0.000  -0.000   0.000
   88   87   89   90    3      30.334   0.000  -30.334  -0.000  -0.000   0.000
  104  103   89   90    3      30.334   0.000  -30.334  -0.000  -0.000   0.000
  105  103   89   90    3      30.334   0.000  -30.334  -0.000  -0.000   0.000
  103   89   90   91    3      -0.523   0.523    0.000  -0.000  -0.000   0.000
   96   95   90   91    3       0.628   1.883    0.000  -2.510  -0.000   0.000
   97   95   90   91    3       0.628   1.883    0.000  -2.510  -0.000   0.000
   98   95   90   91    3       0.628   1.883    0.000  -2.510  -0.000   0.000
  100   99   90   91    3       0.628   1.883    0.000  -2.510  -0.000   0.000
  101   99   90   91    3       0.628   1.883    0.000  -2.510  -0.000   0.000
  102   99   90   91    3       0.628   1.883    0.000  -2.510  -0.000   0.000
  103   89   90   95    3      -0.523   0.523    0.000  -0.000  -0.000   0.000
   92   91   90   95    3       0.628   1.883    0.000  -2.510  -0.000   0.000
   93   91   90   95    3       0.628   1.883    0.000  -2.510  -0.000   0.000
   94   91   90   95    3       0.628   1.883    0.000  -2.510  -0.000   0.000
  100   99   90   95    3       0.628   1.883    0.000  -2.510  -0.000   0.000
  101   99   90   95    3       0.628   1.883    0.000  -2.510  -0.000   0.000
  102   99   90   95    3       0.628   1.883    0.000  -2.510  -0.000   0.000
  103   89   90   99    3      -0.523   0.523    0.000  -0.000  -0.000   0.000
   92   91   90   99    3       0.628   1.883    0.000  -2.510  -0.000   0.000
   93   91   90   99    3       0.628   1.883    0.000  -2.510  -0.000   0.000
   94   91   90   99    3       0.628   1.883    0.000  -2.510  -0.000   0.000
   96   95   90   99    3       0.628   1.883    0.000  -2.510  -0.000   0.000
   97   95   90   99    3       0.628   1.883    0.000  -2.510  -0.000   0.000
   98   95   90   99    3       0.628   1.883    0.000  -2.510  -0.000   0.000
   88   87   89  103    3      30.334   0.000  -30.334  -0.000  -0.000   0.000
   83   85   86  106    3      30.334   0.000  -30.334  -0.000  -0.000   0.000
   88   87   86  106    3      30.334   0.000  -30.334  -0.000  -0.000   0.000
   89  103  105  106    3      30.334   0.000  -30.334  -0.000  -0.000   0.000
  104  103  105  106    3      30.334   0.000  -30.334  -0.000  -0.000   0.000
  109  110  105  106    3      30.334   0.000  -30.334  -0.000  -0.000   0.000
  111  110  105  106    3      30.334   0.000  -30.334  -0.000  -0.000   0.000
   62   63   64  107    3      30.334   0.000  -30.334  -0.000  -0.000   0.000
   85   86  106  107    3      30.334   0.000  -30.334  -0.000  -0.000   0.000
  103  105  106  107    3      30.334   0.000  -30.334  -0.000  -0.000   0.000
  110  105  106  107    3      30.334   0.000  -30.334  -0.000  -0.000   0.000
   17   18   19  108    3      30.334   0.000  -30.334  -0.000  -0.000   0.000
  130   18   19  108    3      30.334   0.000  -30.334  -0.000  -0.000   0.000
   63   64  107  108    3      30.334   0.000  -30.334  -0.000  -0.000   0.000
   86  106  107  108    3      30.334   0.000  -30.334  -0.000  -0.000   0.000
  105  106  107  108    3      30.334   0.000  -30.334  -0.000  -0.000   0.000
   64  107  108  109    3      30.334   0.000  -30.334  -0.000  -0.000   0.000
  106  107  108  109    3      30.334   0.000  -30.334  -0.000  -0.000   0.000
  104  103  105  110    3      30.334   0.000  -30.334  -0.000  -0.000   0.000
   86  106  105  110    3      30.334   0.000  -30.334  -0.000  -0.000   0.000
   19  108  109  110    3      30.334   0.000  -30.334  -0.000  -0.000   0.000
  107  108  109  110    3      30.334   0.000  -30.334  -0.000  -0.000   0.000
  127  129  109  110    3      30.334   0.000  -30.334  -0.000  -0.000   0.000
  130  129  109  110    3      30.334   0.000  -30.334  -0.000  -0.000   0.000
  108  109  110  111    3      30.334   0.000  -30.334  -0.000  -0.000   0.000
  129  109  110  111    3      30.334   0.000  -30.334  -0.000  -0.000   0.000
  109  110  111  113    3      30.334   0.000  -30.334  -0.000  -0.000   0.000
  112  111  113  114    3      30.334   0.000  -30.334  -0.000  -0.000   0.000
  128  127  113  114    3      30.334   0.000  -30.334  -0.000  -0.000   0.000
  129  127  113  114    3      30.334   0.000  -30.334  -0.000  -0.000   0.000
  127  113  114  115    3      -0.523   0.523    0.000  -0.000  -0.000   0.000
  120  119  114  115    3       0.628   1.883    0.000  -2.510  -0.000   0.000
  121  119  114  115    3       0.628   1.883    0.000  -2.510  -0.000   0.000
  122  119  114  115    3       0.628   1.883    0.000  -2.510  -0.000   0.000
  124  123  114  115    3       0.628   1.883    0.000  -2.510  -0.000   0.000
  125  123  114  115    3       0.628   1.883    0.000  -2.510  -0.000   0.000
  126  123  114  115    3       0.628   1.883    0.000  -2.510  -0.000   0.000
  127  113  114  119    3      -0.523   0.523    0.000  -0.000  -0.000   0.000
  116  115  114  119    3       0.628   1.883    0.000  -2.510  -0.000   0.000
  117  115  114  119    3       0.628   1.883    0.000  -2.510  -0.000   0.000
  118  115  114  119    3       0.628   1.883    0.000  -2.510  -0.000   0.000
  124  123  114  119    3       0.628   1.883    0.000  -2.510  -0.000   0.000
  125  123  114  119    3       0.628   1.883    0.000  -2.510  -0.000   0.000
  126  123  114  119    3       0.628   1.883    0.000  -2.510  -0.000   0.000
  127  113  114  123    3      -0.523   0.523    0.000  -0.000  -0.000   0.000
  116  115  114  123    3       0.628   1.883    0.000  -2.510  -0.000   0.000
  117  115  114  123    3       0.628   1.883    0.000  -2.510  -0.000   0.000
  118  115  114  123    3       0.628   1.883    0.000  -2.510  -0.000   0.000
  120  119  114  123    3       0.628   1.883    0.000  -2.510  -0.000   0.000
  121  119  114  123    3       0.628   1.883    0.000  -2.510  -0.000   0.000
  122  119  114  123    3       0.628   1.883    0.000  -2.510  -0.000   0.000
  112  111  113  127    3      30.334   0.000  -30.334  -0.000  -0.000   0.000
  107  108  109  129    3      30.334   0.000  -30.334  -0.000  -0.000   0.000
  105  110  109  129    3      30.334   0.000  -30.334  -0.000  -0.000   0.000
  111  113  127  129    3      30.334   0.000  -30.334  -0.000  -0.000   0.000
   15   17   18  130    3      30.334   0.000  -30.334  -0.000  -0.000   0.000
   22   17   18  130    3      30.334   0.000  -30.334  -0.000  -0.000   0.000
  108  109  129  130    3      30.334   0.000  -30.334  -0.000  -0.000   0.000
  113  127  129  130    3      30.334   0.000  -30.334  -0.000  -0.000   0.000
  128  127  129  130    3      30.334   0.000  -30.334  -0.000  -0.000   0.000
   17   18  130  131    3      30.334   0.000  -30.334  -0.000  -0.000   0.000
  109  129  130  131    3      30.334   0.000  -30.334  -0.000  -0.000   0.000
  127  129  130  131    3      30.334   0.000  -30.334  -0.000  -0.000   0.000
  129  130  131   14    3      30.334   0.000  -30.334  -0.000  -0.000   0.000
  132  131   14   15    3      30.334   0.000  -30.334  -0.000  -0.000   0.000
  129  130   18   17    3      30.334   0.000  -30.334  -0.000  -0.000   0.000
   20   21   22   17    3      30.334   0.000  -30.334  -0.000  -0.000   0.000
  130  131   14    5    3      30.334   0.000  -30.334  -0.000  -0.000   0.000
   11   10    5    6    3       0.628   1.883    0.000  -2.510  -0.000   0.000
   12   10    5    6    3       0.628   1.883    0.000  -2.510  -0.000   0.000
   13   10    5    6    3       0.628   1.883    0.000  -2.510  -0.000   0.000
  131   14    5    6    3      -0.523   0.523    0.000  -0.000  -0.000   0.000
    2    1    5   10    3       0.628   1.883    0.000  -2.510  -0.000   0.000
    3    1    5   10    3       0.628   1.883    0.000  -2.510  -0.000   0.000
    4    1    5   10    3       0.628   1.883    0.000  -2.510  -0.000   0.000
    7    6    5   10    3       0.628   1.883    0.000  -2.510  -0.000   0.000
    8    6    5   10    3       0.628   1.883    0.000  -2.510  -0.000   0.000
    9    6    5   10    3       0.628   1.883    0.000  -2.510  -0.000   0.000
  131   14    5   10    3      -0.523   0.523    0.000  -0.000  -0.000   0.000
  131   14    5    1    3      -0.523   0.523    0.000  -0.000  -0.000   0.000
   14    5    1    2    3       0.967   2.900    0.000  -3.866  -0.000   0.000
   14    5    1    3    3       0.967   2.900    0.000  -3.866  -0.000   0.000
   14    5    1    4    3       0.967   2.900    0.000  -3.866  -0.000   0.000
   14    5    6    7    3       0.967   2.900    0.000  -3.866  -0.000   0.000
   14    5    6    8    3       0.967   2.900    0.000  -3.866  -0.000   0.000
   14    5    6    9    3       0.967   2.900    0.000  -3.866  -0.000   0.000
   14    5   10   11    3       0.967   2.900    0.000  -3.866  -0.000   0.000
   14    5   10   12    3       0.967   2.900    0.000  -3.866  -0.000   0.000
   14    5   10   13    3       0.967   2.900    0.000  -3.866  -0.000   0.000
  131   14   15   16    3      30.334   0.000  -30.334  -0.000  -0.000   0.000
   18   17   15   16    3      30.334   0.000  -30.334  -0.000  -0.000   0.000
   22   17   15   16    3      30.334   0.000  -30.334  -0.000  -0.000   0.000
   21   22   23   24    3      30.334   0.000  -30.334  -0.000  -0.000   0.000
   21   41   39   40    3      30.334   0.000  -30.334  -0.000  -0.000   0.000
   65   66   67   68    3      30.334   0.000  -30.334  -0.000  -0.000   0.000
   65   85   83   84    3      30.334   0.000  -30.334  -0.000  -0.000   0.000
  109  110  111  112    3      30.334   0.000  -30.334  -0.000  -0.000   0.000
  109  129  127  128    3      30.334   0.000  -30.334  -0.000  -0.000   0.000
   18  130  131  132    3      30.334   0.000  -30.334  -0.000  -0.000   0.000
  129  130  131  132    3      30.334   0.000  -30.334  -0.000  -0.000   0.000
   20   21   41   39    3      30.334   0.000  -30.334  -0.000  -0.000   0.000
   25   39   41   21    3      30.334   0.000  -30.334  -0.000  -0.000   0.000
   41   42   62   61    3      30.334   0.000  -30.334  -0.000  -0.000   0.000
   59   61   62   42    3      30.334   0.000  -30.334  -0.000  -0.000   0.000
   19   20   63   62    3      30.334   0.000  -30.334  -0.000  -0.000   0.000
   42   62   63   20    3      30.334   0.000  -30.334  -0.000  -0.000   0.000
   61   62   63   20    3      30.334   0.000  -30.334  -0.000  -0.000   0.000
   59   61   66   65    3      30.334   0.000  -30.334  -0.000  -0.000   0.000
   64   65   66   61    3      30.334   0.000  -30.334  -0.000  -0.000   0.000
   64   65   85   83    3      30.334   0.000  -30.334  -0.000  -0.000   0.000
   69   83   85   65    3      30.334   0.000  -30.334  -0.000  -0.000   0.000
   85   86  106  105    3      30.334   0.000  -30.334  -0.000  -0.000   0.000
  103  105  106   86    3      30.334   0.000  -30.334  -0.000  -0.000   0.000
   63   64  107  106    3      30.334   0.000  -30.334  -0.000  -0.000   0.000
   86  106  107   64    3      30.334   0.000  -30.334  -0.000  -0.000   0.000
  105  106  107   64    3      30.334   0.000  -30.334  -0.000  -0.000   0.000
   64  107  108   19    3      30.334   0.000  -30.334  -0.000  -0.000   0.000
  106  107  108   19    3      30.334   0.000  -30.334  -0.000  -0.000   0.000
  103  105  110  109    3      30.334   0.000  -30.334  -0.000  -0.000   0.000
  108  109  110  105    3      30.334   0.000  -30.334  -0.000  -0.000   0.000
  108  109  129  127    3      30.334   0.000  -30.334  -0.000  -0.000   0.000
  113  127  129  109    3      30.334   0.000  -30.334  -0.000  -0.000   0.000
   19   18  130  129    3      30.334   0.000  -30.334  -0.000  -0.000   0.000
  109  129  130   18    3      30.334   0.000  -30.334  -0.000  -0.000   0.000
  127  129  130   18    3      30.334   0.000  -30.334  -0.000  -0.000   0.000
   14   15   17   18    3      30.334   0.000  -30.334  -0.000  -0.000   0.000
   14   15   17   22    3      30.334   0.000  -30.334  -0.000  -0.000   0.000
   19   18   17   15    3      30.334   0.000  -30.334  -0.000  -0.000   0.000
   19   18   17   22    3      30.334   0.000  -30.334  -0.000  -0.000   0.000
   21   22   17   15    3      30.334   0.000  -30.334  -0.000  -0.000   0.000
   21   22   17   18    3      30.334   0.000  -30.334  -0.000  -0.000   0.000
[ dihedrals ]
;IMPROPER DIHEDRAL ANGLES
;  ai    aj   ak   al funct      c0       c1      c2      c3       c4     c5
   18   19   20  108     4     180.000   10.460       2  
   17   18   19  130     4     180.000   10.460       2  
   19   20   21   63     4     180.000   10.460       2  
   20   21   22   41     4     180.000   10.460       2  
   17   22   21   23     4     180.000   10.460       2  
   22   23   24   25     4     180.000   10.460       2  
   23   25   26   39     4     180.000   10.460       2  
   25   39   40   41     4     180.000   10.460       2  
   21   41   39   42     4     180.000   10.460       2  
   41   42   43   62     4     180.000   10.460       2  
   42   43   44   45     4     180.000   10.460       2  
   43   45   46   59     4     180.000   10.460       2  
   45   59   60   61     4     180.000   10.460       2  
   59   61   62   66     4     180.000   10.460       2  
   42   62   61   63     4     180.000   10.460       2  
   20   63   62   64     4     180.000   10.460       2  
   63   64   65  107     4     180.000   10.460       2  
   64   65   66   85     4     180.000   10.460       2  
   61   66   65   67     4     180.000   10.460       2  
   66   67   68   69     4     180.000   10.460       2  
   67   69   70   83     4     180.000   10.460       2  
   69   83   84   85     4     180.000   10.460       2  
   65   85   83   86     4     180.000   10.460       2  
   85   86   87  106     4     180.000   10.460       2  
   86   87   88   89     4     180.000   10.460       2  
   87   89   90  103     4     180.000   10.460       2  
   89  103  104  105     4     180.000   10.460       2  
  103  105  106  110     4     180.000   10.460       2  
   86  106  105  107     4     180.000   10.460       2  
   64  107  106  108     4     180.000   10.460       2  
   19  108  107  109     4     180.000   10.460       2  
  108  109  110  129     4     180.000   10.460       2  
  105  110  109  111     4     180.000   10.460       2  
  110  111  112  113     4     180.000   10.460       2  
  111  113  114  127     4     180.000   10.460       2  
  113  127  128  129     4     180.000   10.460       2  
  109  129  127  130     4     180.000   10.460       2  
   18  130  129  131     4     180.000   10.460       2  
   14  131  130  132     4     180.000   10.460       2  
    5   14   15  131     4     180.000   10.460       2  
   14   15   16   17     4     180.000   10.460       2  
   15   17   18   22     4     180.000   10.460       2  
[ pairs ]
;  ai    aj funct
   19   22    1
   19   41    1
   19   62    1
   19   64    1
   19  106    1
   19  110    1
   19  129    1
   19  131    1
   19   15    1
   18   21    1
   18   23    1
   18   63    1
   18  107    1
   18  109    1
   18  127    1
   18   14    1
   18   16    1
   18  132    1
   20   23    1
   20   39    1
   20   42    1
   20   61    1
   20   65    1
   20  107    1
   20  109    1
   20  130    1
   20   17    1
   21   25    1
   21   43    1
   21   62    1
   21   64    1
   21  108    1
   21   15    1
   21   24    1
   21   40    1
   22   26    1
   22   39    1
   22   42    1
   22   63    1
   22  130    1
   22   14    1
   22   16    1
   23   27    1
   23   31    1
   23   35    1
   23   41    1
   23   15    1
   23   40    1
   25   42    1
   25   17    1
   25   28    1
   25   29    1
   25   30    1
   25   32    1
   25   33    1
   25   34    1
   25   36    1
   25   37    1
   25   38    1
   26   41    1
   26   24    1
   26   40    1
   27   39    1
   27   32    1
   27   33    1
   27   34    1
   27   36    1
   27   37    1
   27   38    1
   31   39    1
   31   28    1
   31   29    1
   31   30    1
   31   36    1
   31   37    1
   31   38    1
   35   39    1
   35   28    1
   35   29    1
   35   30    1
   35   32    1
   35   33    1
   35   34    1
   39   43    1
   39   62    1
   39   24    1
   41   45    1
   41   61    1
   41   63    1
   41   17    1
   41   44    1
   42   46    1
   42   59    1
   42   64    1
   42   66    1
   42   40    1
   43   47    1
   43   51    1
   43   55    1
   43   61    1
   43   63    1
   43   60    1
   45   62    1
   45   66    1
   45   48    1
   45   49    1
   45   50    1
   45   52    1
   45   53    1
   45   54    1
   45   56    1
   45   57    1
   45   58    1
   46   61    1
   46   44    1
   46   60    1
   47   59    1
   47   52    1
   47   53    1
   47   54    1
   47   56    1
   47   57    1
   47   58    1
   51   59    1
   51   48    1
   51   49    1
   51   50    1
   51   56    1
   51   57    1
   51   58    1
   55   59    1
   55   48    1
   55   49    1
   55   50    1
   55   52    1
   55   53    1
   55   54    1
   59   63    1
   59   65    1
   59   67    1
   59   44    1
   61   64    1
   61   69    1
   61   85    1
   61   68    1
   62   65    1
   62   67    1
   62  107    1
   62   44    1
   62   60    1
   63   66    1
   63   85    1
   63  106    1
   63  108    1
   64   67    1
   64   83    1
   64   86    1
   64  105    1
   64  109    1
   65   69    1
   65   87    1
   65  106    1
   65  108    1
   65   68    1
   65   84    1
   66   70    1
   66   83    1
   66   86    1
   66  107    1
   66   60    1
   67   71    1
   67   75    1
   67   79    1
   67   85    1
   67   84    1
   69   86    1
   69   72    1
   69   73    1
   69   74    1
   69   76    1
   69   77    1
   69   78    1
   69   80    1
   69   81    1
   69   82    1
   70   85    1
   70   68    1
   70   84    1
   71   83    1
   71   76    1
   71   77    1
   71   78    1
   71   80    1
   71   81    1
   71   82    1
   75   83    1
   75   72    1
   75   73    1
   75   74    1
   75   80    1
   75   81    1
   75   82    1
   79   83    1
   79   72    1
   79   73    1
   79   74    1
   79   76    1
   79   77    1
   79   78    1
   83   87    1
   83  106    1
   83   68    1
   85   89    1
   85  105    1
   85  107    1
   85   88    1
   86   90    1
   86  103    1
   86  108    1
   86  110    1
   86   84    1
   87   91    1
   87   95    1
   87   99    1
   87  105    1
   87  107    1
   87  104    1
   89  106    1
   89  110    1
   89   92    1
   89   93    1
   89   94    1
   89   96    1
   89   97    1
   89   98    1
   89  100    1
   89  101    1
   89  102    1
   90  105    1
   90   88    1
   90  104    1
   91  103    1
   91   96    1
   91   97    1
   91   98    1
   91  100    1
   91  101    1
   91  102    1
   95  103    1
   95   92    1
   95   93    1
   95   94    1
   95  100    1
   95  101    1
   95  102    1
   99  103    1
   99   92    1
   99   93    1
   99   94    1
   99   96    1
   99   97    1
   99   98    1
  103  107    1
  103  109    1
  103  111    1
  103   88    1
  105  108    1
  105  113    1
  105  129    1
  105  112    1
  106  109    1
  106  111    1
  106   88    1
  106  104    1
  107  110    1
  107  129    1
  108  111    1
  108  127    1
  108  130    1
  108   17    1
  109  113    1
  109  131    1
  109  112    1
  109  128    1
  110  114    1
  110  127    1
  110  130    1
  110  104    1
  111  115    1
  111  119    1
  111  123    1
  111  129    1
  111  128    1
  113  130    1
  113  116    1
  113  117    1
  113  118    1
  113  120    1
  113  121    1
  113  122    1
  113  124    1
  113  125    1
  113  126    1
  114  129    1
  114  112    1
  114  128    1
  115  127    1
  115  120    1
  115  121    1
  115  122    1
  115  124    1
  115  125    1
  115  126    1
  119  127    1
  119  116    1
  119  117    1
  119  118    1
  119  124    1
  119  125    1
  119  126    1
  123  127    1
  123  116    1
  123  117    1
  123  118    1
  123  120    1
  123  121    1
  123  122    1
  127  131    1
  127  112    1
  129   14    1
  129   17    1
  129  132    1
  130   15    1
  130    5    1
  130  128    1
  131   17    1
  131    6    1
  131   10    1
  131    1    1
  131   16    1
   14    2    1
   14    3    1
   14    4    1
   14    7    1
   14    8    1
   14    9    1
   14   11    1
   14   12    1
   14   13    1
   15    6    1
   15   10    1
   15    1    1
   15  132    1
   17    5    1
   17   24    1
    5   16    1
    5  132    1
    6    2    1
    6    3    1
    6    4    1
    6   11    1
    6   12    1
    6   13    1
   10    2    1
   10    3    1
   10    4    1
   10    7    1
   10    8    1
   10    9    1
    1    7    1
    1    8    1
    1    9    1
    1   11    1
    1   12    1
    1   13    1
