;---------------------------------------------
;        Generated with LigParGen 
;        William L. Jorgensen Lab
;     Author: israel.cabezadevaca@yale.edu
;    OPLS Force Field with CM1A derived Atomic Charges
;---------------------------------------------
[ defaults ]
; nbfunc        comb-rule       gen-pairs       fudgeLJ fudgeQQ
    1               3              yes            0.5     0.5

[ atomtypes ]
  opls_800    CB    12.0110     0.000    A    3.50000E-01   3.34720E-01
  opls_801    CB    12.0110     0.000    A    3.50000E-01   3.34720E-01
  opls_802    CB    12.0110     0.000    A    3.50000E-01   3.34720E-01
  opls_803    CB    12.0110     0.000    A    3.50000E-01   3.34720E-01
  opls_804    CB    12.0110     0.000    A    3.50000E-01   3.34720E-01
  opls_805    CA    12.0110     0.000    A    3.55000E-01   2.92880E-01
  opls_806    CA    12.0110     0.000    A    3.55000E-01   2.92880E-01
  opls_807    CT    12.0110     0.000    A    3.50000E-01   2.76144E-01
  opls_808    CT    12.0110     0.000    A    3.50000E-01   2.76144E-01
  opls_809    CT    12.0110     0.000    A    3.50000E-01   2.76144E-01
  opls_810    CT    12.0110     0.000    A    3.50000E-01   2.76144E-01
  opls_811    CA    12.0110     0.000    A    3.55000E-01   2.92880E-01
  opls_812    CB    12.0110     0.000    A    3.50000E-01   3.34720E-01
  opls_813    CB    12.0110     0.000    A    3.50000E-01   3.34720E-01
  opls_814    CA    12.0110     0.000    A    3.55000E-01   2.92880E-01
  opls_815    CA    12.0110     0.000    A    3.55000E-01   2.92880E-01
  opls_816    CT    12.0110     0.000    A    3.50000E-01   2.76144E-01
  opls_817    CT    12.0110     0.000    A    3.50000E-01   2.76144E-01
  opls_818    CT    12.0110     0.000    A    3.50000E-01   2.76144E-01
  opls_819    CT    12.0110     0.000    A    3.50000E-01   2.76144E-01
  opls_820    CA    12.0110     0.000    A    3.55000E-01   2.92880E-01
  opls_821    CB    12.0110     0.000    A    3.50000E-01   3.34720E-01
  opls_822    CB    12.0110     0.000    A    3.50000E-01   3.34720E-01
  opls_823    CB    12.0110     0.000    A    3.50000E-01   3.34720E-01
  opls_824    CB    12.0110     0.000    A    3.50000E-01   3.34720E-01
  opls_825    CB    12.0110     0.000    A    3.50000E-01   3.34720E-01
  opls_826    CB    12.0110     0.000    A    3.50000E-01   3.34720E-01
  opls_827    CA    12.0110     0.000    A    3.55000E-01   2.92880E-01
  opls_828    CA    12.0110     0.000    A    3.55000E-01   2.92880E-01
  opls_829    CT    12.0110     0.000    A    3.50000E-01   2.76144E-01
  opls_830    CT    12.0110     0.000    A    3.50000E-01   2.76144E-01
  opls_831    CT    12.0110     0.000    A    3.50000E-01   2.76144E-01
  opls_832    CT    12.0110     0.000    A    3.50000E-01   2.76144E-01
  opls_833    CA    12.0110     0.000    A    3.55000E-01   2.92880E-01
  opls_834    CB    12.0110     0.000    A    3.50000E-01   3.34720E-01
  opls_835    CB    12.0110     0.000    A    3.50000E-01   3.34720E-01
  opls_836    CA    12.0110     0.000    A    3.55000E-01   2.92880E-01
  opls_837    CA    12.0110     0.000    A    3.55000E-01   2.92880E-01
  opls_838    CT    12.0110     0.000    A    3.50000E-01   2.76144E-01
  opls_839    CT    12.0110     0.000    A    3.50000E-01   2.76144E-01
  opls_840    CT    12.0110     0.000    A    3.50000E-01   2.76144E-01
  opls_841    CT    12.0110     0.000    A    3.50000E-01   2.76144E-01
  opls_842    CA    12.0110     0.000    A    3.55000E-01   2.92880E-01
  opls_843    CB    12.0110     0.000    A    3.50000E-01   3.34720E-01
  opls_844    CB    12.0110     0.000    A    3.50000E-01   3.34720E-01
  opls_845    CB    12.0110     0.000    A    3.50000E-01   3.34720E-01
  opls_846    CB    12.0110     0.000    A    3.50000E-01   3.34720E-01
  opls_847    CB    12.0110     0.000    A    3.50000E-01   3.34720E-01
  opls_848    CB    12.0110     0.000    A    3.50000E-01   3.34720E-01
  opls_849    CA    12.0110     0.000    A    3.55000E-01   2.92880E-01
  opls_850    CA    12.0110     0.000    A    3.55000E-01   2.92880E-01
  opls_851    CT    12.0110     0.000    A    3.50000E-01   2.76144E-01
  opls_852    CT    12.0110     0.000    A    3.50000E-01   2.76144E-01
  opls_853    CT    12.0110     0.000    A    3.50000E-01   2.76144E-01
  opls_854    CT    12.0110     0.000    A    3.50000E-01   2.76144E-01
  opls_855    CA    12.0110     0.000    A    3.55000E-01   2.92880E-01
  opls_856    CB    12.0110     0.000    A    3.50000E-01   3.34720E-01
  opls_857    CB    12.0110     0.000    A    3.50000E-01   3.34720E-01
  opls_858    CA    12.0110     0.000    A    3.55000E-01   2.92880E-01
  opls_859    CA    12.0110     0.000    A    3.55000E-01   2.92880E-01
  opls_860    CA    12.0110     0.000    A    3.55000E-01   2.92880E-01
  opls_861    CB    12.0110     0.000    A    3.50000E-01   3.34720E-01
  opls_862    CT    12.0110     0.000    A    3.50000E-01   2.76144E-01
  opls_863    CT    12.0110     0.000    A    3.50000E-01   2.76144E-01
  opls_864    CT    12.0110     0.000    A    3.50000E-01   2.76144E-01
  opls_865    CT    12.0110     0.000    A    3.50000E-01   2.76144E-01
  opls_866    HC     1.0080     0.000    A    2.50000E-01   1.25520E-01
  opls_867    HC     1.0080     0.000    A    2.50000E-01   1.25520E-01
  opls_868    HC     1.0080     0.000    A    2.50000E-01   1.25520E-01
  opls_869    HC     1.0080     0.000    A    2.50000E-01   1.25520E-01
  opls_870    HC     1.0080     0.000    A    2.50000E-01   1.25520E-01
  opls_871    HC     1.0080     0.000    A    2.50000E-01   1.25520E-01
  opls_872    HC     1.0080     0.000    A    2.50000E-01   1.25520E-01
  opls_873    HC     1.0080     0.000    A    2.50000E-01   1.25520E-01
  opls_874    HC     1.0080     0.000    A    2.50000E-01   1.25520E-01
  opls_875    HA     1.0080     0.000    A    2.42000E-01   1.25520E-01
  opls_876    HA     1.0080     0.000    A    2.42000E-01   1.25520E-01
  opls_877    HC     1.0080     0.000    A    2.50000E-01   1.25520E-01
  opls_878    HC     1.0080     0.000    A    2.50000E-01   1.25520E-01
  opls_879    HC     1.0080     0.000    A    2.50000E-01   1.25520E-01
  opls_880    HC     1.0080     0.000    A    2.50000E-01   1.25520E-01
  opls_881    HC     1.0080     0.000    A    2.50000E-01   1.25520E-01
  opls_882    HC     1.0080     0.000    A    2.50000E-01   1.25520E-01
  opls_883    HC     1.0080     0.000    A    2.50000E-01   1.25520E-01
  opls_884    HC     1.0080     0.000    A    2.50000E-01   1.25520E-01
  opls_885    HC     1.0080     0.000    A    2.50000E-01   1.25520E-01
  opls_886    HA     1.0080     0.000    A    2.42000E-01   1.25520E-01
  opls_887    HA     1.0080     0.000    A    2.42000E-01   1.25520E-01
  opls_888    HC     1.0080     0.000    A    2.50000E-01   1.25520E-01
  opls_889    HC     1.0080     0.000    A    2.50000E-01   1.25520E-01
  opls_890    HC     1.0080     0.000    A    2.50000E-01   1.25520E-01
  opls_891    HC     1.0080     0.000    A    2.50000E-01   1.25520E-01
  opls_892    HC     1.0080     0.000    A    2.50000E-01   1.25520E-01
  opls_893    HC     1.0080     0.000    A    2.50000E-01   1.25520E-01
  opls_894    HC     1.0080     0.000    A    2.50000E-01   1.25520E-01
  opls_895    HC     1.0080     0.000    A    2.50000E-01   1.25520E-01
  opls_896    HC     1.0080     0.000    A    2.50000E-01   1.25520E-01
  opls_897    HA     1.0080     0.000    A    2.42000E-01   1.25520E-01
  opls_898    HA     1.0080     0.000    A    2.42000E-01   1.25520E-01
  opls_899    HC     1.0080     0.000    A    2.50000E-01   1.25520E-01
 opls_9500    HC     1.0080     0.000    A    2.50000E-01   1.25520E-01
 opls_9501    HC     1.0080     0.000    A    2.50000E-01   1.25520E-01
 opls_9502    HC     1.0080     0.000    A    2.50000E-01   1.25520E-01
 opls_9503    HC     1.0080     0.000    A    2.50000E-01   1.25520E-01
 opls_9504    HC     1.0080     0.000    A    2.50000E-01   1.25520E-01
 opls_9505    HC     1.0080     0.000    A    2.50000E-01   1.25520E-01
 opls_9506    HC     1.0080     0.000    A    2.50000E-01   1.25520E-01
 opls_9507    HC     1.0080     0.000    A    2.50000E-01   1.25520E-01
 opls_9508    HA     1.0080     0.000    A    2.42000E-01   1.25520E-01
 opls_9509    HA     1.0080     0.000    A    2.42000E-01   1.25520E-01
 opls_9510    HC     1.0080     0.000    A    2.50000E-01   1.25520E-01
 opls_9511    HC     1.0080     0.000    A    2.50000E-01   1.25520E-01
 opls_9512    HC     1.0080     0.000    A    2.50000E-01   1.25520E-01
 opls_9513    HC     1.0080     0.000    A    2.50000E-01   1.25520E-01
 opls_9514    HC     1.0080     0.000    A    2.50000E-01   1.25520E-01
 opls_9515    HC     1.0080     0.000    A    2.50000E-01   1.25520E-01
 opls_9516    HC     1.0080     0.000    A    2.50000E-01   1.25520E-01
 opls_9517    HC     1.0080     0.000    A    2.50000E-01   1.25520E-01
 opls_9518    HC     1.0080     0.000    A    2.50000E-01   1.25520E-01
 opls_9519    HA     1.0080     0.000    A    2.42000E-01   1.25520E-01
 opls_9520    HA     1.0080     0.000    A    2.42000E-01   1.25520E-01
 opls_9521    HC     1.0080     0.000    A    2.50000E-01   1.25520E-01
 opls_9522    HC     1.0080     0.000    A    2.50000E-01   1.25520E-01
 opls_9523    HC     1.0080     0.000    A    2.50000E-01   1.25520E-01
 opls_9524    HC     1.0080     0.000    A    2.50000E-01   1.25520E-01
 opls_9525    HC     1.0080     0.000    A    2.50000E-01   1.25520E-01
 opls_9526    HC     1.0080     0.000    A    2.50000E-01   1.25520E-01
 opls_9527    HC     1.0080     0.000    A    2.50000E-01   1.25520E-01
 opls_9528    HC     1.0080     0.000    A    2.50000E-01   1.25520E-01
 opls_9529    HC     1.0080     0.000    A    2.50000E-01   1.25520E-01
 opls_9530    HA     1.0080     0.000    A    2.42000E-01   1.25520E-01
 opls_9531    HA     1.0080     0.000    A    2.42000E-01   1.25520E-01

[ moleculetype ]
; Name               nrexcl
  HTB                  3

[ atoms ]
;   nr       type  resnr residue  atom   cgnr     charge       mass
     1   opls_865      1    HTB   CBR      1    -0.2278    12.0110 
     2   opls_866      1    HTB   HBR      1     0.0890     1.0080 
     3   opls_867      1    HTB   HBS      1     0.0890     1.0080 
     4   opls_868      1    HTB   HBT      1     0.0890     1.0080 
     5   opls_862      1    HTB   CBQ      1    -0.0534    12.0110 
     6   opls_863      1    HTB   CBS      1    -0.2275    12.0110 
     7   opls_869      1    HTB   HBV      1     0.0892     1.0080 
     8   opls_870      1    HTB   HBW      1     0.0892     1.0080 
     9   opls_871      1    HTB   HBU      1     0.0892     1.0080 
    10   opls_864      1    HTB   CBT      1    -0.2304    12.0110 
    11   opls_872      1    HTB   HBY      1     0.0891     1.0080 
    12   opls_873      1    HTB   HBZ      1     0.0891     1.0080 
    13   opls_874      1    HTB   HBX      1     0.0891     1.0080 
    14   opls_859      1    HTB   CBE      1    -0.0450    12.0110 
    15   opls_860      1    HTB   CBD      1    -0.1331    12.0110 
    16   opls_875      1    HTB   HBD      1     0.1499     1.0080 
    17   opls_861      1    HTB   CBA      1    -0.0173    12.0110 
    18   opls_801      1    HTB   CAP      1    -0.0130    12.0110 
    19   opls_800      1    HTB   CAO      1    -0.0055    12.0110 
    20   opls_802      1    HTB   CAT      1    -0.0071    12.0110 
    21   opls_803      1    HTB   CAZ      1    -0.0130    12.0110 
    22   opls_804      1    HTB   CBB      1    -0.0158    12.0110 
    23   opls_805      1    HTB   CBN      1    -0.1347    12.0110 
    24   opls_876      1    HTB   HBN      1     0.1495     1.0080 
    25   opls_806      1    HTB   CBP      1    -0.0449    12.0110 
    26   opls_807      1    HTB   CBU      1    -0.0522    12.0110 
    27   opls_808      1    HTB   CBW      1    -0.2278    12.0110 
    28   opls_877      1    HTB   HB4      1     0.0891     1.0080 
    29   opls_878      1    HTB   HB5      1     0.0891     1.0080 
    30   opls_879      1    HTB   HB3      1     0.0891     1.0080 
    31   opls_809      1    HTB   CBX      1    -0.2310    12.0110 
    32   opls_880      1    HTB   HB7      1     0.0893     1.0080 
    33   opls_881      1    HTB   HB8      1     0.0893     1.0080 
    34   opls_882      1    HTB   HB6      1     0.0893     1.0080 
    35   opls_810      1    HTB   CBV      1    -0.2265    12.0110 
    36   opls_883      1    HTB   HB1      1     0.0896     1.0080 
    37   opls_884      1    HTB   HB2      1     0.0896     1.0080 
    38   opls_885      1    HTB   HB0      1     0.0896     1.0080 
    39   opls_811      1    HTB   CBO      1    -0.1339    12.0110 
    40   opls_886      1    HTB   HBO      1     0.1491     1.0080 
    41   opls_812      1    HTB   CAY      1    -0.0147    12.0110 
    42   opls_813      1    HTB   CAX      1    -0.0157    12.0110 
    43   opls_814      1    HTB   CBK      1    -0.1329    12.0110 
    44   opls_887      1    HTB   HBK      1     0.1491     1.0080 
    45   opls_815      1    HTB   CBL      1    -0.0455    12.0110 
    46   opls_816      1    HTB   CCK      1    -0.0523    12.0110 
    47   opls_817      1    HTB   CCM      1    -0.2273    12.0110 
    48   opls_888      1    HTB   HC4      1     0.0889     1.0080 
    49   opls_889      1    HTB   HC5      1     0.0889     1.0080 
    50   opls_890      1    HTB   HC3      1     0.0889     1.0080 
    51   opls_818      1    HTB   CCN      1    -0.2299    12.0110 
    52   opls_891      1    HTB   HC7      1     0.0897     1.0080 
    53   opls_892      1    HTB   HC8      1     0.0897     1.0080 
    54   opls_893      1    HTB   HC6      1     0.0897     1.0080 
    55   opls_819      1    HTB   CCL      1    -0.2274    12.0110 
    56   opls_894      1    HTB   HC1      1     0.0892     1.0080 
    57   opls_895      1    HTB   HC2      1     0.0892     1.0080 
    58   opls_896      1    HTB   HC0      1     0.0892     1.0080 
    59   opls_820      1    HTB   CBM      1    -0.1329    12.0110 
    60   opls_897      1    HTB   HBM      1     0.1502     1.0080 
    61   opls_821      1    HTB   CBG      1    -0.0173    12.0110 
    62   opls_822      1    HTB   CAW      1    -0.0137    12.0110 
    63   opls_823      1    HTB   CAS      1    -0.0072    12.0110 
    64   opls_824      1    HTB   CAR      1    -0.0079    12.0110 
    65   opls_825      1    HTB   CAV      1    -0.0125    12.0110 
    66   opls_826      1    HTB   CBF      1    -0.0153    12.0110 
    67   opls_827      1    HTB   CBH      1    -0.1333    12.0110 
    68   opls_898      1    HTB   HBH      1     0.1492     1.0080 
    69   opls_828      1    HTB   CBJ      1    -0.0454    12.0110 
    70   opls_829      1    HTB   CCG      1    -0.0536    12.0110 
    71   opls_830      1    HTB   CCI      1    -0.2267    12.0110 
    72   opls_899      1    HTB   HCV      1     0.0892     1.0080 
    73  opls_9500      1    HTB   HCW      1     0.0892     1.0080 
    74  opls_9501      1    HTB   HCU      1     0.0892     1.0080 
    75   opls_831      1    HTB   CCJ      1    -0.2304    12.0110 
    76  opls_9502      1    HTB   HCY      1     0.0894     1.0080 
    77  opls_9503      1    HTB   HCZ      1     0.0894     1.0080 
    78  opls_9504      1    HTB   HCX      1     0.0894     1.0080 
    79   opls_832      1    HTB   CCH      1    -0.2277    12.0110 
    80  opls_9505      1    HTB   HCS      1     0.0893     1.0080 
    81  opls_9506      1    HTB   HCT      1     0.0893     1.0080 
    82  opls_9507      1    HTB   HCR      1     0.0893     1.0080 
    83   opls_833      1    HTB   CBI      1    -0.1336    12.0110 
    84  opls_9508      1    HTB   HBI      1     0.1494     1.0080 
    85   opls_834      1    HTB   CAU      1    -0.0179    12.0110 
    86   opls_835      1    HTB   CAG      1    -0.0122    12.0110 
    87   opls_836      1    HTB   CAH      1    -0.1337    12.0110 
    88  opls_9509      1    HTB   HAH      1     0.1494     1.0080 
    89   opls_837      1    HTB   CAJ      1    -0.0459    12.0110 
    90   opls_838      1    HTB   CCC      1    -0.0534    12.0110 
    91   opls_839      1    HTB   CCE      1    -0.2275    12.0110 
    92  opls_9510      1    HTB   HCM      1     0.0890     1.0080 
    93  opls_9511      1    HTB   HCN      1     0.0890     1.0080 
    94  opls_9512      1    HTB   HCL      1     0.0890     1.0080 
    95   opls_840      1    HTB   CCF      1    -0.2290    12.0110 
    96  opls_9513      1    HTB   HCP      1     0.0895     1.0080 
    97  opls_9514      1    HTB   HCQ      1     0.0895     1.0080 
    98  opls_9515      1    HTB   HCO      1     0.0895     1.0080 
    99   opls_841      1    HTB   CCD      1    -0.2293    12.0110 
   100  opls_9516      1    HTB   HCJ      1     0.0894     1.0080 
   101  opls_9517      1    HTB   HCK      1     0.0894     1.0080 
   102  opls_9518      1    HTB   HCI      1     0.0894     1.0080 
   103   opls_842      1    HTB   CAI      1    -0.1352    12.0110 
   104  opls_9519      1    HTB   HAI      1     0.1489     1.0080 
   105   opls_843      1    HTB   CAE      1    -0.0128    12.0110 
   106   opls_844      1    HTB   CAF      1    -0.0136    12.0110 
   107   opls_845      1    HTB   CAD      1    -0.0069    12.0110 
   108   opls_846      1    HTB   CAB      1    -0.0068    12.0110 
   109   opls_847      1    HTB   CAC      1    -0.0150    12.0110 
   110   opls_848      1    HTB   CAA      1    -0.0151    12.0110 
   111   opls_849      1    HTB   CAK      1    -0.1317    12.0110 
   112  opls_9520      1    HTB   HAK      1     0.1474     1.0080 
   113   opls_850      1    HTB   CAL      1    -0.0442    12.0110 
   114   opls_851      1    HTB   CBY      1    -0.0524    12.0110 
   115   opls_852      1    HTB   CCA      1    -0.2287    12.0110 
   116  opls_9521      1    HTB   HCD      1     0.0887     1.0080 
   117  opls_9522      1    HTB   HCE      1     0.0887     1.0080 
   118  opls_9523      1    HTB   HCC      1     0.0887     1.0080 
   119   opls_853      1    HTB   CCB      1    -0.2292    12.0110 
   120  opls_9524      1    HTB   HCG      1     0.0896     1.0080 
   121  opls_9525      1    HTB   HCH      1     0.0896     1.0080 
   122  opls_9526      1    HTB   HCF      1     0.0896     1.0080 
   123   opls_854      1    HTB   CBZ      1    -0.2292    12.0110 
   124  opls_9527      1    HTB   HCA      1     0.0893     1.0080 
   125  opls_9528      1    HTB   HCB      1     0.0893     1.0080 
   126  opls_9529      1    HTB   HB9      1     0.0893     1.0080 
   127   opls_855      1    HTB   CAN      1    -0.1349    12.0110 
   128  opls_9530      1    HTB   HAN      1     0.1499     1.0080 
   129   opls_856      1    HTB   CAM      1    -0.0167    12.0110 
   130   opls_857      1    HTB   CAQ      1    -0.0151    12.0110 
   131   opls_858      1    HTB   CBC      1    -0.1322    12.0110 
   132  opls_9531      1    HTB   HBC      1     0.1502     1.0080 

[ bonds ]
;  ai    aj   funct      c0       c1
   18   19    1      0.1370    435136.000
   20   19    1      0.1370    435136.000
   21   20    1      0.1370    435136.000
   22   21    1      0.1370    435136.000
   23   22    1      0.1404    392459.200
   25   23    1      0.1400    392459.200
   26   25    1      0.1510    265265.600
   27   26    1      0.1529    224262.400
   31   26    1      0.1529    224262.400
   35   26    1      0.1529    224262.400
   39   25    1      0.1400    392459.200
   41   21    1      0.1370    435136.000
   42   41    1      0.1370    435136.000
   43   42    1      0.1404    392459.200
   45   43    1      0.1400    392459.200
   46   45    1      0.1510    265265.600
   47   46    1      0.1529    224262.400
   51   46    1      0.1529    224262.400
   55   46    1      0.1529    224262.400
   59   45    1      0.1400    392459.200
   61   59    1      0.1404    392459.200
   62   42    1      0.1370    435136.000
   63   20    1      0.1370    435136.000
   64   63    1      0.1370    435136.000
   65   64    1      0.1370    435136.000
   66   61    1      0.1370    435136.000
   67   66    1      0.1404    392459.200
   69   67    1      0.1400    392459.200
   70   69    1      0.1510    265265.600
   71   70    1      0.1529    224262.400
   75   70    1      0.1529    224262.400
   79   70    1      0.1529    224262.400
   83   69    1      0.1400    392459.200
   85   65    1      0.1370    435136.000
   86   85    1      0.1370    435136.000
   87   86    1      0.1404    392459.200
   89   87    1      0.1400    392459.200
   90   89    1      0.1510    265265.600
   91   90    1      0.1529    224262.400
   95   90    1      0.1529    224262.400
   99   90    1      0.1529    224262.400
  103   89    1      0.1400    392459.200
  105  103    1      0.1404    392459.200
  106   86    1      0.1370    435136.000
  107   64    1      0.1370    435136.000
  108   19    1      0.1370    435136.000
  109  108    1      0.1370    435136.000
  110  105    1      0.1370    435136.000
  111  110    1      0.1404    392459.200
  113  111    1      0.1400    392459.200
  114  113    1      0.1510    265265.600
  115  114    1      0.1529    224262.400
  119  114    1      0.1529    224262.400
  123  114    1      0.1529    224262.400
  127  113    1      0.1400    392459.200
  129  109    1      0.1370    435136.000
  130   18    1      0.1370    435136.000
  131  130    1      0.1404    392459.200
   14  131    1      0.1400    392459.200
   15   14    1      0.1400    392459.200
   17   15    1      0.1404    392459.200
    5   14    1      0.1510    265265.600
    6    5    1      0.1529    224262.400
   10    5    1      0.1529    224262.400
    1    5    1      0.1529    224262.400
    2    1    1      0.1090    284512.000
    3    1    1      0.1090    284512.000
    4    1    1      0.1090    284512.000
    7    6    1      0.1090    284512.000
    8    6    1      0.1090    284512.000
    9    6    1      0.1090    284512.000
   11   10    1      0.1090    284512.000
   12   10    1      0.1090    284512.000
   13   10    1      0.1090    284512.000
   16   15    1      0.1080    307105.600
   24   23    1      0.1080    307105.600
   28   27    1      0.1090    284512.000
   29   27    1      0.1090    284512.000
   30   27    1      0.1090    284512.000
   32   31    1      0.1090    284512.000
   33   31    1      0.1090    284512.000
   34   31    1      0.1090    284512.000
   36   35    1      0.1090    284512.000
   37   35    1      0.1090    284512.000
   38   35    1      0.1090    284512.000
   40   39    1      0.1080    307105.600
   44   43    1      0.1080    307105.600
   48   47    1      0.1090    284512.000
   49   47    1      0.1090    284512.000
   50   47    1      0.1090    284512.000
   52   51    1      0.1090    284512.000
   53   51    1      0.1090    284512.000
   54   51    1      0.1090    284512.000
   56   55    1      0.1090    284512.000
   57   55    1      0.1090    284512.000
   58   55    1      0.1090    284512.000
   60   59    1      0.1080    307105.600
   68   67    1      0.1080    307105.600
   72   71    1      0.1090    284512.000
   73   71    1      0.1090    284512.000
   74   71    1      0.1090    284512.000
   76   75    1      0.1090    284512.000
   77   75    1      0.1090    284512.000
   78   75    1      0.1090    284512.000
   80   79    1      0.1090    284512.000
   81   79    1      0.1090    284512.000
   82   79    1      0.1090    284512.000
   84   83    1      0.1080    307105.600
   88   87    1      0.1080    307105.600
   92   91    1      0.1090    284512.000
   93   91    1      0.1090    284512.000
   94   91    1      0.1090    284512.000
   96   95    1      0.1090    284512.000
   97   95    1      0.1090    284512.000
   98   95    1      0.1090    284512.000
  100   99    1      0.1090    284512.000
  101   99    1      0.1090    284512.000
  102   99    1      0.1090    284512.000
  104  103    1      0.1080    307105.600
  112  111    1      0.1080    307105.600
  116  115    1      0.1090    284512.000
  117  115    1      0.1090    284512.000
  118  115    1      0.1090    284512.000
  120  119    1      0.1090    284512.000
  121  119    1      0.1090    284512.000
  122  119    1      0.1090    284512.000
  124  123    1      0.1090    284512.000
  125  123    1      0.1090    284512.000
  126  123    1      0.1090    284512.000
  128  127    1      0.1080    307105.600
  132  131    1      0.1080    307105.600
   41   39    1      0.1404    392459.200
   62   61    1      0.1370    435136.000
   63   62    1      0.1370    435136.000
   66   65    1      0.1370    435136.000
   85   83    1      0.1404    392459.200
  106  105    1      0.1370    435136.000
  107  106    1      0.1370    435136.000
  108  107    1      0.1370    435136.000
  110  109    1      0.1370    435136.000
  129  127    1      0.1404    392459.200
  130  129    1      0.1370    435136.000
   17   18    1      0.1370    435136.000
   17   22    1      0.1370    435136.000

[angles]
;  ai    aj   ak  funct      c0       c1 
   20   19   18    1       120.000    527.184
   21   20   19    1       120.000    527.184
   22   21   20    1       120.000    527.184
   23   22   21    1       117.300    711.280
   25   23   22    1       120.000    527.184
   26   25   23    1       120.000    585.760
   27   26   25    1       114.000    527.184
   31   26   25    1       114.000    527.184
   35   26   25    1       114.000    527.184
   39   25   23    1       120.000    527.184
   41   21   20    1       120.000    527.184
   42   41   21    1       120.000    527.184
   43   42   41    1       117.300    711.280
   45   43   42    1       120.000    527.184
   46   45   43    1       120.000    585.760
   47   46   45    1       114.000    527.184
   51   46   45    1       114.000    527.184
   55   46   45    1       114.000    527.184
   59   45   43    1       120.000    527.184
   61   59   45    1       120.000    527.184
   62   42   41    1       120.000    527.184
   63   20   19    1       120.000    527.184
   64   63   20    1       120.000    527.184
   65   64   63    1       120.000    527.184
   66   61   59    1       117.300    711.280
   67   66   61    1       117.300    711.280
   69   67   66    1       120.000    527.184
   70   69   67    1       120.000    585.760
   71   70   69    1       114.000    527.184
   75   70   69    1       114.000    527.184
   79   70   69    1       114.000    527.184
   83   69   67    1       120.000    527.184
   85   65   64    1       120.000    527.184
   86   85   65    1       120.000    527.184
   87   86   85    1       117.300    711.280
   89   87   86    1       120.000    527.184
   90   89   87    1       120.000    585.760
   91   90   89    1       114.000    527.184
   95   90   89    1       114.000    527.184
   99   90   89    1       114.000    527.184
  103   89   87    1       120.000    527.184
  105  103   89    1       120.000    527.184
  106   86   85    1       120.000    527.184
  107   64   63    1       120.000    527.184
  108   19   20    1       120.000    527.184
  109  108   19    1       120.000    527.184
  110  105  103    1       117.300    711.280
  111  110  105    1       117.300    711.280
  113  111  110    1       120.000    527.184
  114  113  111    1       120.000    585.760
  115  114  113    1       114.000    527.184
  119  114  113    1       114.000    527.184
  123  114  113    1       114.000    527.184
  127  113  111    1       120.000    527.184
  129  109  108    1       120.000    527.184
  130   18   19    1       120.000    527.184
  131  130   18    1       117.300    711.280
   14  131  130    1       120.000    527.184
   15   14  131    1       120.000    527.184
   17   15   14    1       120.000    527.184
    5   14   15    1       120.000    585.760
    6    5   14    1       114.000    527.184
   10    5   14    1       114.000    527.184
    1    5   14    1       114.000    527.184
    2    1    5    1       110.700    313.800
    3    1    5    1       110.700    313.800
    4    1    5    1       110.700    313.800
    7    6    5    1       110.700    313.800
    8    6    5    1       110.700    313.800
    9    6    5    1       110.700    313.800
   11   10    5    1       110.700    313.800
   12   10    5    1       110.700    313.800
   13   10    5    1       110.700    313.800
   16   15   14    1       120.000    292.880
   24   23   22    1       120.000    292.880
   28   27   26    1       110.700    313.800
   29   27   26    1       110.700    313.800
   30   27   26    1       110.700    313.800
   32   31   26    1       110.700    313.800
   33   31   26    1       110.700    313.800
   34   31   26    1       110.700    313.800
   36   35   26    1       110.700    313.800
   37   35   26    1       110.700    313.800
   38   35   26    1       110.700    313.800
   40   39   25    1       120.000    292.880
   44   43   42    1       120.000    292.880
   48   47   46    1       110.700    313.800
   49   47   46    1       110.700    313.800
   50   47   46    1       110.700    313.800
   52   51   46    1       110.700    313.800
   53   51   46    1       110.700    313.800
   54   51   46    1       110.700    313.800
   56   55   46    1       110.700    313.800
   57   55   46    1       110.700    313.800
   58   55   46    1       110.700    313.800
   60   59   45    1       120.000    292.880
   68   67   66    1       120.000    292.880
   72   71   70    1       110.700    313.800
   73   71   70    1       110.700    313.800
   74   71   70    1       110.700    313.800
   76   75   70    1       110.700    313.800
   77   75   70    1       110.700    313.800
   78   75   70    1       110.700    313.800
   80   79   70    1       110.700    313.800
   81   79   70    1       110.700    313.800
   82   79   70    1       110.700    313.800
   84   83   69    1       120.000    292.880
   88   87   86    1       120.000    292.880
   92   91   90    1       110.700    313.800
   93   91   90    1       110.700    313.800
   94   91   90    1       110.700    313.800
   96   95   90    1       110.700    313.800
   97   95   90    1       110.700    313.800
   98   95   90    1       110.700    313.800
  100   99   90    1       110.700    313.800
  101   99   90    1       110.700    313.800
  102   99   90    1       110.700    313.800
  104  103   89    1       120.000    292.880
  112  111  110    1       120.000    292.880
  116  115  114    1       110.700    313.800
  117  115  114    1       110.700    313.800
  118  115  114    1       110.700    313.800
  120  119  114    1       110.700    313.800
  121  119  114    1       110.700    313.800
  122  119  114    1       110.700    313.800
  124  123  114    1       110.700    313.800
  125  123  114    1       110.700    313.800
  126  123  114    1       110.700    313.800
  128  127  113    1       120.000    292.880
  132  131   14    1       120.000    292.880
  108   19   18    1       120.000    527.184
   63   20   21    1       120.000    527.184
   41   21   22    1       120.000    527.184
   17   22   23    1       117.300    711.280
   24   23   25    1       120.000    292.880
   39   25   26    1       120.000    585.760
   31   26   27    1       112.700    488.273
   35   26   27    1       112.700    488.273
   35   26   31    1       112.700    488.273
   25   39   41    1       120.000    527.184
   40   39   41    1       120.000    292.880
   39   41   42    1       117.300    711.280
   62   42   43    1       117.300    711.280
   44   43   45    1       120.000    292.880
   59   45   46    1       120.000    585.760
   51   46   47    1       112.700    488.273
   55   46   47    1       112.700    488.273
   55   46   51    1       112.700    488.273
   60   59   61    1       120.000    292.880
   59   61   62    1       117.300    711.280
   66   61   62    1       120.000    527.184
   42   62   63    1       120.000    527.184
   61   62   63    1       120.000    527.184
   62   63   64    1       120.000    527.184
  107   64   65    1       120.000    527.184
   64   65   66    1       120.000    527.184
   85   65   66    1       120.000    527.184
   65   66   67    1       117.300    711.280
   68   67   69    1       120.000    292.880
   83   69   70    1       120.000    585.760
   75   70   71    1       112.700    488.273
   79   70   71    1       112.700    488.273
   79   70   75    1       112.700    488.273
   69   83   85    1       120.000    527.184
   84   83   85    1       120.000    292.880
   83   85   86    1       117.300    711.280
  106   86   87    1       117.300    711.280
   88   87   89    1       120.000    292.880
  103   89   90    1       120.000    585.760
   95   90   91    1       112.700    488.273
   99   90   91    1       112.700    488.273
   99   90   95    1       112.700    488.273
  104  103  105    1       120.000    292.880
  103  105  106    1       117.300    711.280
  110  105  106    1       120.000    527.184
   86  106  107    1       120.000    527.184
  105  106  107    1       120.000    527.184
   64  107  108    1       120.000    527.184
  106  107  108    1       120.000    527.184
  107  108  109    1       120.000    527.184
  108  109  110    1       120.000    527.184
  129  109  110    1       120.000    527.184
  109  110  111    1       117.300    711.280
  112  111  113    1       120.000    292.880
  127  113  114    1       120.000    585.760
  119  114  115    1       112.700    488.273
  123  114  115    1       112.700    488.273
  123  114  119    1       112.700    488.273
  113  127  129    1       120.000    527.184
  128  127  129    1       120.000    292.880
   17   18  130    1       120.000    527.184
  109  129  130    1       120.000    527.184
  127  129  130    1       117.300    711.280
  129  130  131    1       117.300    711.280
   16   15   17    1       120.000    292.880
   19   18   17    1       120.000    527.184
   21   22   17    1       120.000    527.184
  131   14    5    1       120.000    585.760
    1    5    6    1       112.700    488.273
   10    5    6    1       112.700    488.273
    1    5   10    1       112.700    488.273
    3    1    2    1       107.800    276.144
    4    1    2    1       107.800    276.144
    4    1    3    1       107.800    276.144
    8    6    7    1       107.800    276.144
    9    6    7    1       107.800    276.144
    9    6    8    1       107.800    276.144
   12   10   11    1       107.800    276.144
   13   10   11    1       107.800    276.144
   13   10   12    1       107.800    276.144
   29   27   28    1       107.800    276.144
   30   27   28    1       107.800    276.144
   30   27   29    1       107.800    276.144
   33   31   32    1       107.800    276.144
   34   31   32    1       107.800    276.144
   34   31   33    1       107.800    276.144
   37   35   36    1       107.800    276.144
   38   35   36    1       107.800    276.144
   38   35   37    1       107.800    276.144
   49   47   48    1       107.800    276.144
   50   47   48    1       107.800    276.144
   50   47   49    1       107.800    276.144
   53   51   52    1       107.800    276.144
   54   51   52    1       107.800    276.144
   54   51   53    1       107.800    276.144
   57   55   56    1       107.800    276.144
   58   55   56    1       107.800    276.144
   58   55   57    1       107.800    276.144
   73   71   72    1       107.800    276.144
   74   71   72    1       107.800    276.144
   74   71   73    1       107.800    276.144
   77   75   76    1       107.800    276.144
   78   75   76    1       107.800    276.144
   78   75   77    1       107.800    276.144
   81   79   80    1       107.800    276.144
   82   79   80    1       107.800    276.144
   82   79   81    1       107.800    276.144
   93   91   92    1       107.800    276.144
   94   91   92    1       107.800    276.144
   94   91   93    1       107.800    276.144
   97   95   96    1       107.800    276.144
   98   95   96    1       107.800    276.144
   98   95   97    1       107.800    276.144
  101   99  100    1       107.800    276.144
  102   99  100    1       107.800    276.144
  102   99  101    1       107.800    276.144
  117  115  116    1       107.800    276.144
  118  115  116    1       107.800    276.144
  118  115  117    1       107.800    276.144
  121  119  120    1       107.800    276.144
  122  119  120    1       107.800    276.144
  122  119  121    1       107.800    276.144
  125  123  124    1       107.800    276.144
  126  123  124    1       107.800    276.144
  126  123  125    1       107.800    276.144
  130  131  132    1       120.000    292.880
   21   41   39    1       117.300    711.280
   42   62   61    1       120.000    527.184
   20   63   62    1       120.000    527.184
   61   66   65    1       120.000    527.184
   65   85   83    1       117.300    711.280
   86  106  105    1       120.000    527.184
   64  107  106    1       120.000    527.184
   19  108  107    1       120.000    527.184
  105  110  109    1       120.000    527.184
  109  129  127    1       117.300    711.280
   18  130  129    1       120.000    527.184
   15   17   18    1       117.300    711.280
   15   17   22    1       117.300    711.280
   18   17   22    1       120.000    527.184
[ dihedrals ]
;  PROPER DIHEDRAL ANGLES
;  ai    aj   ak   al funct      c0       c1      c2      c3       c4     c5
   21   20   19   18    3      30.334   0.000  -30.334  -0.000  -0.000   0.000
   22   21   20   19    3      30.334   0.000  -30.334  -0.000  -0.000   0.000
   23   22   21   20    3      30.334   0.000  -30.334  -0.000  -0.000   0.000
   25   23   22   21    3      30.334   0.000  -30.334  -0.000  -0.000   0.000
   26   25   23   22    3      30.334   0.000  -30.334  -0.000  -0.000   0.000
   27   26   25   23    3      -0.523   0.523    0.000  -0.000  -0.000   0.000
   31   26   25   23    3      -0.523   0.523    0.000  -0.000  -0.000   0.000
   35   26   25   23    3      -0.523   0.523    0.000  -0.000  -0.000   0.000
   39   25   23   22    3      30.334   0.000  -30.334  -0.000  -0.000   0.000
   41   21   20   19    3      30.334   0.000  -30.334  -0.000  -0.000   0.000
   42   41   21   20    3      30.334   0.000  -30.334  -0.000  -0.000   0.000
   43   42   41   21    3      30.334   0.000  -30.334  -0.000  -0.000   0.000
   45   43   42   41    3      30.334   0.000  -30.334  -0.000  -0.000   0.000
   46   45   43   42    3      30.334   0.000  -30.334  -0.000  -0.000   0.000
   47   46   45   43    3      -0.523   0.523    0.000  -0.000  -0.000   0.000
   51   46   45   43    3      -0.523   0.523    0.000  -0.000  -0.000   0.000
   55   46   45   43    3      -0.523   0.523    0.000  -0.000  -0.000   0.000
   59   45   43   42    3      30.334   0.000  -30.334  -0.000  -0.000   0.000
   61   59   45   43    3      30.334   0.000  -30.334  -0.000  -0.000   0.000
   62   42   41   21    3      30.334   0.000  -30.334  -0.000  -0.000   0.000
   63   20   19   18    3      30.334   0.000  -30.334  -0.000  -0.000   0.000
   64   63   20   19    3      30.334   0.000  -30.334  -0.000  -0.000   0.000
   65   64   63   20    3      30.334   0.000  -30.334  -0.000  -0.000   0.000
   66   61   59   45    3      30.334   0.000  -30.334  -0.000  -0.000   0.000
   67   66   61   59    3      30.334   0.000  -30.334  -0.000  -0.000   0.000
   69   67   66   61    3      30.334   0.000  -30.334  -0.000  -0.000   0.000
   70   69   67   66    3      30.334   0.000  -30.334  -0.000  -0.000   0.000
   71   70   69   67    3      -0.523   0.523    0.000  -0.000  -0.000   0.000
   75   70   69   67    3      -0.523   0.523    0.000  -0.000  -0.000   0.000
   79   70   69   67    3      -0.523   0.523    0.000  -0.000  -0.000   0.000
   83   69   67   66    3      30.334   0.000  -30.334  -0.000  -0.000   0.000
   85   65   64   63    3      30.334   0.000  -30.334  -0.000  -0.000   0.000
   86   85   65   64    3      30.334   0.000  -30.334  -0.000  -0.000   0.000
   87   86   85   65    3      30.334   0.000  -30.334  -0.000  -0.000   0.000
   89   87   86   85    3      30.334   0.000  -30.334  -0.000  -0.000   0.000
   90   89   87   86    3      30.334   0.000  -30.334  -0.000  -0.000   0.000
   91   90   89   87    3      -0.523   0.523    0.000  -0.000  -0.000   0.000
   95   90   89   87    3      -0.523   0.523    0.000  -0.000  -0.000   0.000
   99   90   89   87    3      -0.523   0.523    0.000  -0.000  -0.000   0.000
  103   89   87   86    3      30.334   0.000  -30.334  -0.000  -0.000   0.000
  105  103   89   87    3      30.334   0.000  -30.334  -0.000  -0.000   0.000
  106   86   85   65    3      30.334   0.000  -30.334  -0.000  -0.000   0.000
  107   64   63   20    3      30.334   0.000  -30.334  -0.000  -0.000   0.000
  108   19   20   21    3      30.334   0.000  -30.334  -0.000  -0.000   0.000
  109  108   19   18    3      30.334   0.000  -30.334  -0.000  -0.000   0.000
  110  105  103   89    3      30.334   0.000  -30.334  -0.000  -0.000   0.000
  111  110  105  103    3      30.334   0.000  -30.334  -0.000  -0.000   0.000
  113  111  110  105    3      30.334   0.000  -30.334  -0.000  -0.000   0.000
  114  113  111  110    3      30.334   0.000  -30.334  -0.000  -0.000   0.000
  115  114  113  111    3      -0.523   0.523    0.000  -0.000  -0.000   0.000
  119  114  113  111    3      -0.523   0.523    0.000  -0.000  -0.000   0.000
  123  114  113  111    3      -0.523   0.523    0.000  -0.000  -0.000   0.000
  127  113  111  110    3      30.334   0.000  -30.334  -0.000  -0.000   0.000
  129  109  108   19    3      30.334   0.000  -30.334  -0.000  -0.000   0.000
  130   18   19   20    3      30.334   0.000  -30.334  -0.000  -0.000   0.000
  131  130   18   19    3      30.334   0.000  -30.334  -0.000  -0.000   0.000
   14  131  130   18    3      30.334   0.000  -30.334  -0.000  -0.000   0.000
   15   14  131  130    3      30.334   0.000  -30.334  -0.000  -0.000   0.000
   17   15   14  131    3      30.334   0.000  -30.334  -0.000  -0.000   0.000
    5   14   15   17    3      30.334   0.000  -30.334  -0.000  -0.000   0.000
    6    5   14   15    3      -0.523   0.523    0.000  -0.000  -0.000   0.000
   10    5   14   15    3      -0.523   0.523    0.000  -0.000  -0.000   0.000
    1    5   14   15    3      -0.523   0.523    0.000  -0.000  -0.000   0.000
    2    1    5    6    3       0.628   1.883    0.000  -2.510  -0.000   0.000
    3    1    5    6    3       0.628   1.883    0.000  -2.510  -0.000   0.000
    4    1    5    6    3       0.628   1.883    0.000  -2.510  -0.000   0.000
    7    6    5    1    3       0.628   1.883    0.000  -2.510  -0.000   0.000
    8    6    5    1    3       0.628   1.883    0.000  -2.510  -0.000   0.000
    9    6    5    1    3       0.628   1.883    0.000  -2.510  -0.000   0.000
   11   10    5    1    3       0.628   1.883    0.000  -2.510  -0.000   0.000
   12   10    5    1    3       0.628   1.883    0.000  -2.510  -0.000   0.000
   13   10    5    1    3       0.628   1.883    0.000  -2.510  -0.000   0.000
   16   15   14    5    3      30.334   0.000  -30.334  -0.000  -0.000   0.000
   24   23   22   17    3      30.334   0.000  -30.334  -0.000  -0.000   0.000
   28   27   26   25    3       0.967   2.900    0.000  -3.866  -0.000   0.000
   29   27   26   25    3       0.967   2.900    0.000  -3.866  -0.000   0.000
   30   27   26   25    3       0.967   2.900    0.000  -3.866  -0.000   0.000
   32   31   26   25    3       0.967   2.900    0.000  -3.866  -0.000   0.000
   33   31   26   25    3       0.967   2.900    0.000  -3.866  -0.000   0.000
   34   31   26   25    3       0.967   2.900    0.000  -3.866  -0.000   0.000
   36   35   26   25    3       0.967   2.900    0.000  -3.866  -0.000   0.000
   37   35   26   25    3       0.967   2.900    0.000  -3.866  -0.000   0.000
   38   35   26   25    3       0.967   2.900    0.000  -3.866  -0.000   0.000
   40   39   25   23    3      30.334   0.000  -30.334  -0.000  -0.000   0.000
   44   43   42   41    3      30.334   0.000  -30.334  -0.000  -0.000   0.000
   48   47   46   45    3       0.967   2.900    0.000  -3.866  -0.000   0.000
   49   47   46   45    3       0.967   2.900    0.000  -3.866  -0.000   0.000
   50   47   46   45    3       0.967   2.900    0.000  -3.866  -0.000   0.000
   52   51   46   45    3       0.967   2.900    0.000  -3.866  -0.000   0.000
   53   51   46   45    3       0.967   2.900    0.000  -3.866  -0.000   0.000
   54   51   46   45    3       0.967   2.900    0.000  -3.866  -0.000   0.000
   56   55   46   45    3       0.967   2.900    0.000  -3.866  -0.000   0.000
   57   55   46   45    3       0.967   2.900    0.000  -3.866  -0.000   0.000
   58   55   46   45    3       0.967   2.900    0.000  -3.866  -0.000   0.000
   60   59   45   43    3      30.334   0.000  -30.334  -0.000  -0.000   0.000
   68   67   66   61    3      30.334   0.000  -30.334  -0.000  -0.000   0.000
   72   71   70   69    3       0.967   2.900    0.000  -3.866  -0.000   0.000
   73   71   70   69    3       0.967   2.900    0.000  -3.866  -0.000   0.000
   74   71   70   69    3       0.967   2.900    0.000  -3.866  -0.000   0.000
   76   75   70   69    3       0.967   2.900    0.000  -3.866  -0.000   0.000
   77   75   70   69    3       0.967   2.900    0.000  -3.866  -0.000   0.000
   78   75   70   69    3       0.967   2.900    0.000  -3.866  -0.000   0.000
   80   79   70   69    3       0.967   2.900    0.000  -3.866  -0.000   0.000
   81   79   70   69    3       0.967   2.900    0.000  -3.866  -0.000   0.000
   82   79   70   69    3       0.967   2.900    0.000  -3.866  -0.000   0.000
   84   83   69   67    3      30.334   0.000  -30.334  -0.000  -0.000   0.000
   88   87   86   85    3      30.334   0.000  -30.334  -0.000  -0.000   0.000
   92   91   90   89    3       0.967   2.900    0.000  -3.866  -0.000   0.000
   93   91   90   89    3       0.967   2.900    0.000  -3.866  -0.000   0.000
   94   91   90   89    3       0.967   2.900    0.000  -3.866  -0.000   0.000
   96   95   90   89    3       0.967   2.900    0.000  -3.866  -0.000   0.000
   97   95   90   89    3       0.967   2.900    0.000  -3.866  -0.000   0.000
   98   95   90   89    3       0.967   2.900    0.000  -3.866  -0.000   0.000
  100   99   90   89    3       0.967   2.900    0.000  -3.866  -0.000   0.000
  101   99   90   89    3       0.967   2.900    0.000  -3.866  -0.000   0.000
  102   99   90   89    3       0.967   2.900    0.000  -3.866  -0.000   0.000
  104  103   89   87    3      30.334   0.000  -30.334  -0.000  -0.000   0.000
  112  111  110  105    3      30.334   0.000  -30.334  -0.000  -0.000   0.000
  116  115  114  113    3       0.967   2.900    0.000  -3.866  -0.000   0.000
  117  115  114  113    3       0.967   2.900    0.000  -3.866  -0.000   0.000
  118  115  114  113    3       0.967   2.900    0.000  -3.866  -0.000   0.000
  120  119  114  113    3       0.967   2.900    0.000  -3.866  -0.000   0.000
  121  119  114  113    3       0.967   2.900    0.000  -3.866  -0.000   0.000
  122  119  114  113    3       0.967   2.900    0.000  -3.866  -0.000   0.000
  124  123  114  113    3       0.967   2.900    0.000  -3.866  -0.000   0.000
  125  123  114  113    3       0.967   2.900    0.000  -3.866  -0.000   0.000
  126  123  114  113    3       0.967   2.900    0.000  -3.866  -0.000   0.000
  128  127  113  111    3      30.334   0.000  -30.334  -0.000  -0.000   0.000
  132  131   14    5    3      30.334   0.000  -30.334  -0.000  -0.000   0.000
  107  108   19   18    3      30.334   0.000  -30.334  -0.000  -0.000   0.000
   17   18   19   20    3      30.334   0.000  -30.334  -0.000  -0.000   0.000
  107  108   19   20    3      30.334   0.000  -30.334  -0.000  -0.000   0.000
  109  108   19   20    3      30.334   0.000  -30.334  -0.000  -0.000   0.000
   62   63   20   21    3      30.334   0.000  -30.334  -0.000  -0.000   0.000
   64   63   20   21    3      30.334   0.000  -30.334  -0.000  -0.000   0.000
   63   20   21   22    3      30.334   0.000  -30.334  -0.000  -0.000   0.000
   39   41   21   22    3      30.334   0.000  -30.334  -0.000  -0.000   0.000
   42   41   21   22    3      30.334   0.000  -30.334  -0.000  -0.000   0.000
   15   17   22   23    3      30.334   0.000  -30.334  -0.000  -0.000   0.000
   18   17   22   23    3      30.334   0.000  -30.334  -0.000  -0.000   0.000
   41   21   22   23    3      30.334   0.000  -30.334  -0.000  -0.000   0.000
   17   22   23   25    3      30.334   0.000  -30.334  -0.000  -0.000   0.000
   24   23   25   26    3      30.334   0.000  -30.334  -0.000  -0.000   0.000
   40   39   25   26    3      30.334   0.000  -30.334  -0.000  -0.000   0.000
   41   39   25   26    3      30.334   0.000  -30.334  -0.000  -0.000   0.000
   39   25   26   27    3      -0.523   0.523    0.000  -0.000  -0.000   0.000
   32   31   26   27    3       0.628   1.883    0.000  -2.510  -0.000   0.000
   33   31   26   27    3       0.628   1.883    0.000  -2.510  -0.000   0.000
   34   31   26   27    3       0.628   1.883    0.000  -2.510  -0.000   0.000
   36   35   26   27    3       0.628   1.883    0.000  -2.510  -0.000   0.000
   37   35   26   27    3       0.628   1.883    0.000  -2.510  -0.000   0.000
   38   35   26   27    3       0.628   1.883    0.000  -2.510  -0.000   0.000
   39   25   26   31    3      -0.523   0.523    0.000  -0.000  -0.000   0.000
   28   27   26   31    3       0.628   1.883    0.000  -2.510  -0.000   0.000
   29   27   26   31    3       0.628   1.883    0.000  -2.510  -0.000   0.000
   30   27   26   31    3       0.628   1.883    0.000  -2.510  -0.000   0.000
   36   35   26   31    3       0.628   1.883    0.000  -2.510  -0.000   0.000
   37   35   26   31    3       0.628   1.883    0.000  -2.510  -0.000   0.000
   38   35   26   31    3       0.628   1.883    0.000  -2.510  -0.000   0.000
   39   25   26   35    3      -0.523   0.523    0.000  -0.000  -0.000   0.000
   28   27   26   35    3       0.628   1.883    0.000  -2.510  -0.000   0.000
   29   27   26   35    3       0.628   1.883    0.000  -2.510  -0.000   0.000
   30   27   26   35    3       0.628   1.883    0.000  -2.510  -0.000   0.000
   32   31   26   35    3       0.628   1.883    0.000  -2.510  -0.000   0.000
   33   31   26   35    3       0.628   1.883    0.000  -2.510  -0.000   0.000
   34   31   26   35    3       0.628   1.883    0.000  -2.510  -0.000   0.000
   24   23   25   39    3      30.334   0.000  -30.334  -0.000  -0.000   0.000
   63   20   21   41    3      30.334   0.000  -30.334  -0.000  -0.000   0.000
   17   22   21   41    3      30.334   0.000  -30.334  -0.000  -0.000   0.000
   23   25   39   41    3      30.334   0.000  -30.334  -0.000  -0.000   0.000
   25   39   41   42    3      30.334   0.000  -30.334  -0.000  -0.000   0.000
   40   39   41   42    3      30.334   0.000  -30.334  -0.000  -0.000   0.000
   39   41   42   43    3      30.334   0.000  -30.334  -0.000  -0.000   0.000
   61   62   42   43    3      30.334   0.000  -30.334  -0.000  -0.000   0.000
   63   62   42   43    3      30.334   0.000  -30.334  -0.000  -0.000   0.000
   62   42   43   45    3      30.334   0.000  -30.334  -0.000  -0.000   0.000
   44   43   45   46    3      30.334   0.000  -30.334  -0.000  -0.000   0.000
   60   59   45   46    3      30.334   0.000  -30.334  -0.000  -0.000   0.000
   61   59   45   46    3      30.334   0.000  -30.334  -0.000  -0.000   0.000
   59   45   46   47    3      -0.523   0.523    0.000  -0.000  -0.000   0.000
   52   51   46   47    3       0.628   1.883    0.000  -2.510  -0.000   0.000
   53   51   46   47    3       0.628   1.883    0.000  -2.510  -0.000   0.000
   54   51   46   47    3       0.628   1.883    0.000  -2.510  -0.000   0.000
   56   55   46   47    3       0.628   1.883    0.000  -2.510  -0.000   0.000
   57   55   46   47    3       0.628   1.883    0.000  -2.510  -0.000   0.000
   58   55   46   47    3       0.628   1.883    0.000  -2.510  -0.000   0.000
   59   45   46   51    3      -0.523   0.523    0.000  -0.000  -0.000   0.000
   48   47   46   51    3       0.628   1.883    0.000  -2.510  -0.000   0.000
   49   47   46   51    3       0.628   1.883    0.000  -2.510  -0.000   0.000
   50   47   46   51    3       0.628   1.883    0.000  -2.510  -0.000   0.000
   56   55   46   51    3       0.628   1.883    0.000  -2.510  -0.000   0.000
   57   55   46   51    3       0.628   1.883    0.000  -2.510  -0.000   0.000
   58   55   46   51    3       0.628   1.883    0.000  -2.510  -0.000   0.000
   59   45   46   55    3      -0.523   0.523    0.000  -0.000  -0.000   0.000
   48   47   46   55    3       0.628   1.883    0.000  -2.510  -0.000   0.000
   49   47   46   55    3       0.628   1.883    0.000  -2.510  -0.000   0.000
   50   47   46   55    3       0.628   1.883    0.000  -2.510  -0.000   0.000
   52   51   46   55    3       0.628   1.883    0.000  -2.510  -0.000   0.000
   53   51   46   55    3       0.628   1.883    0.000  -2.510  -0.000   0.000
   54   51   46   55    3       0.628   1.883    0.000  -2.510  -0.000   0.000
   44   43   45   59    3      30.334   0.000  -30.334  -0.000  -0.000   0.000
   39   41   42   62    3      30.334   0.000  -30.334  -0.000  -0.000   0.000
   44   43   42   62    3      30.334   0.000  -30.334  -0.000  -0.000   0.000
   45   59   61   62    3      30.334   0.000  -30.334  -0.000  -0.000   0.000
   60   59   61   62    3      30.334   0.000  -30.334  -0.000  -0.000   0.000
   65   66   61   62    3      30.334   0.000  -30.334  -0.000  -0.000   0.000
   67   66   61   62    3      30.334   0.000  -30.334  -0.000  -0.000   0.000
  108   19   20   63    3      30.334   0.000  -30.334  -0.000  -0.000   0.000
   41   42   62   63    3      30.334   0.000  -30.334  -0.000  -0.000   0.000
   59   61   62   63    3      30.334   0.000  -30.334  -0.000  -0.000   0.000
   66   61   62   63    3      30.334   0.000  -30.334  -0.000  -0.000   0.000
   42   62   63   64    3      30.334   0.000  -30.334  -0.000  -0.000   0.000
   61   62   63   64    3      30.334   0.000  -30.334  -0.000  -0.000   0.000
   62   63   64   65    3      30.334   0.000  -30.334  -0.000  -0.000   0.000
  106  107   64   65    3      30.334   0.000  -30.334  -0.000  -0.000   0.000
  108  107   64   65    3      30.334   0.000  -30.334  -0.000  -0.000   0.000
   60   59   61   66    3      30.334   0.000  -30.334  -0.000  -0.000   0.000
   42   62   61   66    3      30.334   0.000  -30.334  -0.000  -0.000   0.000
   63   64   65   66    3      30.334   0.000  -30.334  -0.000  -0.000   0.000
  107   64   65   66    3      30.334   0.000  -30.334  -0.000  -0.000   0.000
   83   85   65   66    3      30.334   0.000  -30.334  -0.000  -0.000   0.000
   86   85   65   66    3      30.334   0.000  -30.334  -0.000  -0.000   0.000
   64   65   66   67    3      30.334   0.000  -30.334  -0.000  -0.000   0.000
   85   65   66   67    3      30.334   0.000  -30.334  -0.000  -0.000   0.000
   65   66   67   69    3      30.334   0.000  -30.334  -0.000  -0.000   0.000
   68   67   69   70    3      30.334   0.000  -30.334  -0.000  -0.000   0.000
   84   83   69   70    3      30.334   0.000  -30.334  -0.000  -0.000   0.000
   85   83   69   70    3      30.334   0.000  -30.334  -0.000  -0.000   0.000
   83   69   70   71    3      -0.523   0.523    0.000  -0.000  -0.000   0.000
   76   75   70   71    3       0.628   1.883    0.000  -2.510  -0.000   0.000
   77   75   70   71    3       0.628   1.883    0.000  -2.510  -0.000   0.000
   78   75   70   71    3       0.628   1.883    0.000  -2.510  -0.000   0.000
   80   79   70   71    3       0.628   1.883    0.000  -2.510  -0.000   0.000
   81   79   70   71    3       0.628   1.883    0.000  -2.510  -0.000   0.000
   82   79   70   71    3       0.628   1.883    0.000  -2.510  -0.000   0.000
   83   69   70   75    3      -0.523   0.523    0.000  -0.000  -0.000   0.000
   72   71   70   75    3       0.628   1.883    0.000  -2.510  -0.000   0.000
   73   71   70   75    3       0.628   1.883    0.000  -2.510  -0.000   0.000
   74   71   70   75    3       0.628   1.883    0.000  -2.510  -0.000   0.000
   80   79   70   75    3       0.628   1.883    0.000  -2.510  -0.000   0.000
   81   79   70   75    3       0.628   1.883    0.000  -2.510  -0.000   0.000
   82   79   70   75    3       0.628   1.883    0.000  -2.510  -0.000   0.000
   83   69   70   79    3      -0.523   0.523    0.000  -0.000  -0.000   0.000
   72   71   70   79    3       0.628   1.883    0.000  -2.510  -0.000   0.000
   73   71   70   79    3       0.628   1.883    0.000  -2.510  -0.000   0.000
   74   71   70   79    3       0.628   1.883    0.000  -2.510  -0.000   0.000
   76   75   70   79    3       0.628   1.883    0.000  -2.510  -0.000   0.000
   77   75   70   79    3       0.628   1.883    0.000  -2.510  -0.000   0.000
   78   75   70   79    3       0.628   1.883    0.000  -2.510  -0.000   0.000
   68   67   69   83    3      30.334   0.000  -30.334  -0.000  -0.000   0.000
  107   64   65   85    3      30.334   0.000  -30.334  -0.000  -0.000   0.000
   61   66   65   85    3      30.334   0.000  -30.334  -0.000  -0.000   0.000
   67   69   83   85    3      30.334   0.000  -30.334  -0.000  -0.000   0.000
   69   83   85   86    3      30.334   0.000  -30.334  -0.000  -0.000   0.000
   84   83   85   86    3      30.334   0.000  -30.334  -0.000  -0.000   0.000
   83   85   86   87    3      30.334   0.000  -30.334  -0.000  -0.000   0.000
  105  106   86   87    3      30.334   0.000  -30.334  -0.000  -0.000   0.000
  107  106   86   87    3      30.334   0.000  -30.334  -0.000  -0.000   0.000
  106   86   87   89    3      30.334   0.000  -30.334  -0.000  -0.000   0.000
   88   87   89   90    3      30.334   0.000  -30.334  -0.000  -0.000   0.000
  104  103   89   90    3      30.334   0.000  -30.334  -0.000  -0.000   0.000
  105  103   89   90    3      30.334   0.000  -30.334  -0.000  -0.000   0.000
  103   89   90   91    3      -0.523   0.523    0.000  -0.000  -0.000   0.000
   96   95   90   91    3       0.628   1.883    0.000  -2.510  -0.000   0.000
   97   95   90   91    3       0.628   1.883    0.000  -2.510  -0.000   0.000
   98   95   90   91    3       0.628   1.883    0.000  -2.510  -0.000   0.000
  100   99   90   91    3       0.628   1.883    0.000  -2.510  -0.000   0.000
  101   99   90   91    3       0.628   1.883    0.000  -2.510  -0.000   0.000
  102   99   90   91    3       0.628   1.883    0.000  -2.510  -0.000   0.000
  103   89   90   95    3      -0.523   0.523    0.000  -0.000  -0.000   0.000
   92   91   90   95    3       0.628   1.883    0.000  -2.510  -0.000   0.000
   93   91   90   95    3       0.628   1.883    0.000  -2.510  -0.000   0.000
   94   91   90   95    3       0.628   1.883    0.000  -2.510  -0.000   0.000
  100   99   90   95    3       0.628   1.883    0.000  -2.510  -0.000   0.000
  101   99   90   95    3       0.628   1.883    0.000  -2.510  -0.000   0.000
  102   99   90   95    3       0.628   1.883    0.000  -2.510  -0.000   0.000
  103   89   90   99    3      -0.523   0.523    0.000  -0.000  -0.000   0.000
   92   91   90   99    3       0.628   1.883    0.000  -2.510  -0.000   0.000
   93   91   90   99    3       0.628   1.883    0.000  -2.510  -0.000   0.000
   94   91   90   99    3       0.628   1.883    0.000  -2.510  -0.000   0.000
   96   95   90   99    3       0.628   1.883    0.000  -2.510  -0.000   0.000
   97   95   90   99    3       0.628   1.883    0.000  -2.510  -0.000   0.000
   98   95   90   99    3       0.628   1.883    0.000  -2.510  -0.000   0.000
   88   87   89  103    3      30.334   0.000  -30.334  -0.000  -0.000   0.000
   83   85   86  106    3      30.334   0.000  -30.334  -0.000  -0.000   0.000
   88   87   86  106    3      30.334   0.000  -30.334  -0.000  -0.000   0.000
   89  103  105  106    3      30.334   0.000  -30.334  -0.000  -0.000   0.000
  104  103  105  106    3      30.334   0.000  -30.334  -0.000  -0.000   0.000
  109  110  105  106    3      30.334   0.000  -30.334  -0.000  -0.000   0.000
  111  110  105  106    3      30.334   0.000  -30.334  -0.000  -0.000   0.000
   62   63   64  107    3      30.334   0.000  -30.334  -0.000  -0.000   0.000
   85   86  106  107    3      30.334   0.000  -30.334  -0.000  -0.000   0.000
  103  105  106  107    3      30.334   0.000  -30.334  -0.000  -0.000   0.000
  110  105  106  107    3      30.334   0.000  -30.334  -0.000  -0.000   0.000
   17   18   19  108    3      30.334   0.000  -30.334  -0.000  -0.000   0.000
  130   18   19  108    3      30.334   0.000  -30.334  -0.000  -0.000   0.000
   63   64  107  108    3      30.334   0.000  -30.334  -0.000  -0.000   0.000
   86  106  107  108    3      30.334   0.000  -30.334  -0.000  -0.000   0.000
  105  106  107  108    3      30.334   0.000  -30.334  -0.000  -0.000   0.000
   64  107  108  109    3      30.334   0.000  -30.334  -0.000  -0.000   0.000
  106  107  108  109    3      30.334   0.000  -30.334  -0.000  -0.000   0.000
  104  103  105  110    3      30.334   0.000  -30.334  -0.000  -0.000   0.000
   86  106  105  110    3      30.334   0.000  -30.334  -0.000  -0.000   0.000
   19  108  109  110    3      30.334   0.000  -30.334  -0.000  -0.000   0.000
  107  108  109  110    3      30.334   0.000  -30.334  -0.000  -0.000   0.000
  127  129  109  110    3      30.334   0.000  -30.334  -0.000  -0.000   0.000
  130  129  109  110    3      30.334   0.000  -30.334  -0.000  -0.000   0.000
  108  109  110  111    3      30.334   0.000  -30.334  -0.000  -0.000   0.000
  129  109  110  111    3      30.334   0.000  -30.334  -0.000  -0.000   0.000
  109  110  111  113    3      30.334   0.000  -30.334  -0.000  -0.000   0.000
  112  111  113  114    3      30.334   0.000  -30.334  -0.000  -0.000   0.000
  128  127  113  114    3      30.334   0.000  -30.334  -0.000  -0.000   0.000
  129  127  113  114    3      30.334   0.000  -30.334  -0.000  -0.000   0.000
  127  113  114  115    3      -0.523   0.523    0.000  -0.000  -0.000   0.000
  120  119  114  115    3       0.628   1.883    0.000  -2.510  -0.000   0.000
  121  119  114  115    3       0.628   1.883    0.000  -2.510  -0.000   0.000
  122  119  114  115    3       0.628   1.883    0.000  -2.510  -0.000   0.000
  124  123  114  115    3       0.628   1.883    0.000  -2.510  -0.000   0.000
  125  123  114  115    3       0.628   1.883    0.000  -2.510  -0.000   0.000
  126  123  114  115    3       0.628   1.883    0.000  -2.510  -0.000   0.000
  127  113  114  119    3      -0.523   0.523    0.000  -0.000  -0.000   0.000
  116  115  114  119    3       0.628   1.883    0.000  -2.510  -0.000   0.000
  117  115  114  119    3       0.628   1.883    0.000  -2.510  -0.000   0.000
  118  115  114  119    3       0.628   1.883    0.000  -2.510  -0.000   0.000
  124  123  114  119    3       0.628   1.883    0.000  -2.510  -0.000   0.000
  125  123  114  119    3       0.628   1.883    0.000  -2.510  -0.000   0.000
  126  123  114  119    3       0.628   1.883    0.000  -2.510  -0.000   0.000
  127  113  114  123    3      -0.523   0.523    0.000  -0.000  -0.000   0.000
  116  115  114  123    3       0.628   1.883    0.000  -2.510  -0.000   0.000
  117  115  114  123    3       0.628   1.883    0.000  -2.510  -0.000   0.000
  118  115  114  123    3       0.628   1.883    0.000  -2.510  -0.000   0.000
  120  119  114  123    3       0.628   1.883    0.000  -2.510  -0.000   0.000
  121  119  114  123    3       0.628   1.883    0.000  -2.510  -0.000   0.000
  122  119  114  123    3       0.628   1.883    0.000  -2.510  -0.000   0.000
  112  111  113  127    3      30.334   0.000  -30.334  -0.000  -0.000   0.000
  107  108  109  129    3      30.334   0.000  -30.334  -0.000  -0.000   0.000
  105  110  109  129    3      30.334   0.000  -30.334  -0.000  -0.000   0.000
  111  113  127  129    3      30.334   0.000  -30.334  -0.000  -0.000   0.000
   15   17   18  130    3      30.334   0.000  -30.334  -0.000  -0.000   0.000
   22   17   18  130    3      30.334   0.000  -30.334  -0.000  -0.000   0.000
  108  109  129  130    3      30.334   0.000  -30.334  -0.000  -0.000   0.000
  113  127  129  130    3      30.334   0.000  -30.334  -0.000  -0.000   0.000
  128  127  129  130    3      30.334   0.000  -30.334  -0.000  -0.000   0.000
   17   18  130  131    3      30.334   0.000  -30.334  -0.000  -0.000   0.000
  109  129  130  131    3      30.334   0.000  -30.334  -0.000  -0.000   0.000
  127  129  130  131    3      30.334   0.000  -30.334  -0.000  -0.000   0.000
  129  130  131   14    3      30.334   0.000  -30.334  -0.000  -0.000   0.000
  132  131   14   15    3      30.334   0.000  -30.334  -0.000  -0.000   0.000
  129  130   18   17    3      30.334   0.000  -30.334  -0.000  -0.000   0.000
   20   21   22   17    3      30.334   0.000  -30.334  -0.000  -0.000   0.000
  130  131   14    5    3      30.334   0.000  -30.334  -0.000  -0.000   0.000
   11   10    5    6    3       0.628   1.883    0.000  -2.510  -0.000   0.000
   12   10    5    6    3       0.628   1.883    0.000  -2.510  -0.000   0.000
   13   10    5    6    3       0.628   1.883    0.000  -2.510  -0.000   0.000
  131   14    5    6    3      -0.523   0.523    0.000  -0.000  -0.000   0.000
    2    1    5   10    3       0.628   1.883    0.000  -2.510  -0.000   0.000
    3    1    5   10    3       0.628   1.883    0.000  -2.510  -0.000   0.000
    4    1    5   10    3       0.628   1.883    0.000  -2.510  -0.000   0.000
    7    6    5   10    3       0.628   1.883    0.000  -2.510  -0.000   0.000
    8    6    5   10    3       0.628   1.883    0.000  -2.510  -0.000   0.000
    9    6    5   10    3       0.628   1.883    0.000  -2.510  -0.000   0.000
  131   14    5   10    3      -0.523   0.523    0.000  -0.000  -0.000   0.000
  131   14    5    1    3      -0.523   0.523    0.000  -0.000  -0.000   0.000
   14    5    1    2    3       0.967   2.900    0.000  -3.866  -0.000   0.000
   14    5    1    3    3       0.967   2.900    0.000  -3.866  -0.000   0.000
   14    5    1    4    3       0.967   2.900    0.000  -3.866  -0.000   0.000
   14    5    6    7    3       0.967   2.900    0.000  -3.866  -0.000   0.000
   14    5    6    8    3       0.967   2.900    0.000  -3.866  -0.000   0.000
   14    5    6    9    3       0.967   2.900    0.000  -3.866  -0.000   0.000
   14    5   10   11    3       0.967   2.900    0.000  -3.866  -0.000   0.000
   14    5   10   12    3       0.967   2.900    0.000  -3.866  -0.000   0.000
   14    5   10   13    3       0.967   2.900    0.000  -3.866  -0.000   0.000
  131   14   15   16    3      30.334   0.000  -30.334  -0.000  -0.000   0.000
   18   17   15   16    3      30.334   0.000  -30.334  -0.000  -0.000   0.000
   22   17   15   16    3      30.334   0.000  -30.334  -0.000  -0.000   0.000
   21   22   23   24    3      30.334   0.000  -30.334  -0.000  -0.000   0.000
   21   41   39   40    3      30.334   0.000  -30.334  -0.000  -0.000   0.000
   65   66   67   68    3      30.334   0.000  -30.334  -0.000  -0.000   0.000
   65   85   83   84    3      30.334   0.000  -30.334  -0.000  -0.000   0.000
  109  110  111  112    3      30.334   0.000  -30.334  -0.000  -0.000   0.000
  109  129  127  128    3      30.334   0.000  -30.334  -0.000  -0.000   0.000
   18  130  131  132    3      30.334   0.000  -30.334  -0.000  -0.000   0.000
  129  130  131  132    3      30.334   0.000  -30.334  -0.000  -0.000   0.000
   20   21   41   39    3      30.334   0.000  -30.334  -0.000  -0.000   0.000
   25   39   41   21    3      30.334   0.000  -30.334  -0.000  -0.000   0.000
   41   42   62   61    3      30.334   0.000  -30.334  -0.000  -0.000   0.000
   59   61   62   42    3      30.334   0.000  -30.334  -0.000  -0.000   0.000
   19   20   63   62    3      30.334   0.000  -30.334  -0.000  -0.000   0.000
   42   62   63   20    3      30.334   0.000  -30.334  -0.000  -0.000   0.000
   61   62   63   20    3      30.334   0.000  -30.334  -0.000  -0.000   0.000
   59   61   66   65    3      30.334   0.000  -30.334  -0.000  -0.000   0.000
   64   65   66   61    3      30.334   0.000  -30.334  -0.000  -0.000   0.000
   64   65   85   83    3      30.334   0.000  -30.334  -0.000  -0.000   0.000
   69   83   85   65    3      30.334   0.000  -30.334  -0.000  -0.000   0.000
   85   86  106  105    3      30.334   0.000  -30.334  -0.000  -0.000   0.000
  103  105  106   86    3      30.334   0.000  -30.334  -0.000  -0.000   0.000
   63   64  107  106    3      30.334   0.000  -30.334  -0.000  -0.000   0.000
   86  106  107   64    3      30.334   0.000  -30.334  -0.000  -0.000   0.000
  105  106  107   64    3      30.334   0.000  -30.334  -0.000  -0.000   0.000
   64  107  108   19    3      30.334   0.000  -30.334  -0.000  -0.000   0.000
  106  107  108   19    3      30.334   0.000  -30.334  -0.000  -0.000   0.000
  103  105  110  109    3      30.334   0.000  -30.334  -0.000  -0.000   0.000
  108  109  110  105    3      30.334   0.000  -30.334  -0.000  -0.000   0.000
  108  109  129  127    3      30.334   0.000  -30.334  -0.000  -0.000   0.000
  113  127  129  109    3      30.334   0.000  -30.334  -0.000  -0.000   0.000
   19   18  130  129    3      30.334   0.000  -30.334  -0.000  -0.000   0.000
  109  129  130   18    3      30.334   0.000  -30.334  -0.000  -0.000   0.000
  127  129  130   18    3      30.334   0.000  -30.334  -0.000  -0.000   0.000
   14   15   17   18    3      30.334   0.000  -30.334  -0.000  -0.000   0.000
   14   15   17   22    3      30.334   0.000  -30.334  -0.000  -0.000   0.000
   19   18   17   15    3      30.334   0.000  -30.334  -0.000  -0.000   0.000
   19   18   17   22    3      30.334   0.000  -30.334  -0.000  -0.000   0.000
   21   22   17   15    3      30.334   0.000  -30.334  -0.000  -0.000   0.000
   21   22   17   18    3      30.334   0.000  -30.334  -0.000  -0.000   0.000
[ dihedrals ]
;IMPROPER DIHEDRAL ANGLES
;  ai    aj   ak   al funct      c0       c1      c2      c3       c4     c5
   18   19   20  108     4     180.000   10.460       2  
   17   18   19  130     4     180.000   10.460       2  
   19   20   21   63     4     180.000   10.460       2  
   20   21   22   41     4     180.000   10.460       2  
   17   22   21   23     4     180.000   10.460       2  
   22   23   24   25     4     180.000   10.460       2  
   23   25   26   39     4     180.000   10.460       2  
   25   39   40   41     4     180.000   10.460       2  
   21   41   39   42     4     180.000   10.460       2  
   41   42   43   62     4     180.000   10.460       2  
   42   43   44   45     4     180.000   10.460       2  
   43   45   46   59     4     180.000   10.460       2  
   45   59   60   61     4     180.000   10.460       2  
   59   61   62   66     4     180.000   10.460       2  
   42   62   61   63     4     180.000   10.460       2  
   20   63   62   64     4     180.000   10.460       2  
   63   64   65  107     4     180.000   10.460       2  
   64   65   66   85     4     180.000   10.460       2  
   61   66   65   67     4     180.000   10.460       2  
   66   67   68   69     4     180.000   10.460       2  
   67   69   70   83     4     180.000   10.460       2  
   69   83   84   85     4     180.000   10.460       2  
   65   85   83   86     4     180.000   10.460       2  
   85   86   87  106     4     180.000   10.460       2  
   86   87   88   89     4     180.000   10.460       2  
   87   89   90  103     4     180.000   10.460       2  
   89  103  104  105     4     180.000   10.460       2  
  103  105  106  110     4     180.000   10.460       2  
   86  106  105  107     4     180.000   10.460       2  
   64  107  106  108     4     180.000   10.460       2  
   19  108  107  109     4     180.000   10.460       2  
  108  109  110  129     4     180.000   10.460       2  
  105  110  109  111     4     180.000   10.460       2  
  110  111  112  113     4     180.000   10.460       2  
  111  113  114  127     4     180.000   10.460       2  
  113  127  128  129     4     180.000   10.460       2  
  109  129  127  130     4     180.000   10.460       2  
   18  130  129  131     4     180.000   10.460       2  
   14  131  130  132     4     180.000   10.460       2  
    5   14   15  131     4     180.000   10.460       2  
   14   15   16   17     4     180.000   10.460       2  
   15   17   18   22     4     180.000   10.460       2  
[ pairs ]
;  ai    aj funct
   19   22    1
   19   41    1
   19   62    1
   19   64    1
   19  106    1
   19  110    1
   19  129    1
   19  131    1
   19   15    1
   18   21    1
   18   23    1
   18   63    1
   18  107    1
   18  109    1
   18  127    1
   18   14    1
   18   16    1
   18  132    1
   20   23    1
   20   39    1
   20   42    1
   20   61    1
   20   65    1
   20  107    1
   20  109    1
   20  130    1
   20   17    1
   21   25    1
   21   43    1
   21   62    1
   21   64    1
   21  108    1
   21   15    1
   21   24    1
   21   40    1
   22   26    1
   22   39    1
   22   42    1
   22   63    1
   22  130    1
   22   14    1
   22   16    1
   23   27    1
   23   31    1
   23   35    1
   23   41    1
   23   15    1
   23   40    1
   25   42    1
   25   17    1
   25   28    1
   25   29    1
   25   30    1
   25   32    1
   25   33    1
   25   34    1
   25   36    1
   25   37    1
   25   38    1
   26   41    1
   26   24    1
   26   40    1
   27   39    1
   27   32    1
   27   33    1
   27   34    1
   27   36    1
   27   37    1
   27   38    1
   31   39    1
   31   28    1
   31   29    1
   31   30    1
   31   36    1
   31   37    1
   31   38    1
   35   39    1
   35   28    1
   35   29    1
   35   30    1
   35   32    1
   35   33    1
   35   34    1
   39   43    1
   39   62    1
   39   24    1
   41   45    1
   41   61    1
   41   63    1
   41   17    1
   41   44    1
   42   46    1
   42   59    1
   42   64    1
   42   66    1
   42   40    1
   43   47    1
   43   51    1
   43   55    1
   43   61    1
   43   63    1
   43   60    1
   45   62    1
   45   66    1
   45   48    1
   45   49    1
   45   50    1
   45   52    1
   45   53    1
   45   54    1
   45   56    1
   45   57    1
   45   58    1
   46   61    1
   46   44    1
   46   60    1
   47   59    1
   47   52    1
   47   53    1
   47   54    1
   47   56    1
   47   57    1
   47   58    1
   51   59    1
   51   48    1
   51   49    1
   51   50    1
   51   56    1
   51   57    1
   51   58    1
   55   59    1
   55   48    1
   55   49    1
   55   50    1
   55   52    1
   55   53    1
   55   54    1
   59   63    1
   59   65    1
   59   67    1
   59   44    1
   61   64    1
   61   69    1
   61   85    1
   61   68    1
   62   65    1
   62   67    1
   62  107    1
   62   44    1
   62   60    1
   63   66    1
   63   85    1
   63  106    1
   63  108    1
   64   67    1
   64   83    1
   64   86    1
   64  105    1
   64  109    1
   65   69    1
   65   87    1
   65  106    1
   65  108    1
   65   68    1
   65   84    1
   66   70    1
   66   83    1
   66   86    1
   66  107    1
   66   60    1
   67   71    1
   67   75    1
   67   79    1
   67   85    1
   67   84    1
   69   86    1
   69   72    1
   69   73    1
   69   74    1
   69   76    1
   69   77    1
   69   78    1
   69   80    1
   69   81    1
   69   82    1
   70   85    1
   70   68    1
   70   84    1
   71   83    1
   71   76    1
   71   77    1
   71   78    1
   71   80    1
   71   81    1
   71   82    1
   75   83    1
   75   72    1
   75   73    1
   75   74    1
   75   80    1
   75   81    1
   75   82    1
   79   83    1
   79   72    1
   79   73    1
   79   74    1
   79   76    1
   79   77    1
   79   78    1
   83   87    1
   83  106    1
   83   68    1
   85   89    1
   85  105    1
   85  107    1
   85   88    1
   86   90    1
   86  103    1
   86  108    1
   86  110    1
   86   84    1
   87   91    1
   87   95    1
   87   99    1
   87  105    1
   87  107    1
   87  104    1
   89  106    1
   89  110    1
   89   92    1
   89   93    1
   89   94    1
   89   96    1
   89   97    1
   89   98    1
   89  100    1
   89  101    1
   89  102    1
   90  105    1
   90   88    1
   90  104    1
   91  103    1
   91   96    1
   91   97    1
   91   98    1
   91  100    1
   91  101    1
   91  102    1
   95  103    1
   95   92    1
   95   93    1
   95   94    1
   95  100    1
   95  101    1
   95  102    1
   99  103    1
   99   92    1
   99   93    1
   99   94    1
   99   96    1
   99   97    1
   99   98    1
  103  107    1
  103  109    1
  103  111    1
  103   88    1
  105  108    1
  105  113    1
  105  129    1
  105  112    1
  106  109    1
  106  111    1
  106   88    1
  106  104    1
  107  110    1
  107  129    1
  108  111    1
  108  127    1
  108  130    1
  108   17    1
  109  113    1
  109  131    1
  109  112    1
  109  128    1
  110  114    1
  110  127    1
  110  130    1
  110  104    1
  111  115    1
  111  119    1
  111  123    1
  111  129    1
  111  128    1
  113  130    1
  113  116    1
  113  117    1
  113  118    1
  113  120    1
  113  121    1
  113  122    1
  113  124    1
  113  125    1
  113  126    1
  114  129    1
  114  112    1
  114  128    1
  115  127    1
  115  120    1
  115  121    1
  115  122    1
  115  124    1
  115  125    1
  115  126    1
  119  127    1
  119  116    1
  119  117    1
  119  118    1
  119  124    1
  119  125    1
  119  126    1
  123  127    1
  123  116    1
  123  117    1
  123  118    1
  123  120    1
  123  121    1
  123  122    1
  127  131    1
  127  112    1
  129   14    1
  129   17    1
  129  132    1
  130   15    1
  130    5    1
  130  128    1
  131   17    1
  131    6    1
  131   10    1
  131    1    1
  131   16    1
   14    2    1
   14    3    1
   14    4    1
   14    7    1
   14    8    1
   14    9    1
   14   11    1
   14   12    1
   14   13    1
   15    6    1
   15   10    1
   15    1    1
   15  132    1
   17    5    1
   17   24    1
    5   16    1
    5  132    1
    6    2    1
    6    3    1
    6    4    1
    6   11    1
    6   12    1
    6   13    1
   10    2    1
   10    3    1
   10    4    1
   10    7    1
   10    8    1
   10    9    1
    1    7    1
    1    8    1
    1    9    1
    1   11    1
    1   12    1
    1   13    1
