;COSTA ET AL. 2016 -- Aggregation of model asphaltenes – a Molecular Dynamics study  -- 
;SUPPLEMENTARY DATA
;
;OPLSAA topology for heptane
;
;itp.file 
;
;
;
[ moleculetype ]
; Name	nrexcl
Heptane	  3

[ atoms ] 
;   nr       	    	type  resnr residue  atom   cgnr     charge       mass  typeB    chargeB      massB
	 1  opls_135         1       LIG         C         1     -0.18    12.011
         2  opls_140         1       LIG         H         1     0.06     1.008
         3  opls_140         1       LIG         H         1     0.06     1.008
         4  opls_140         1       LIG         H         1     0.06     1.008
         5  opls_136         1       LIG         C         2     -0.12    12.011
         6  opls_140         1       LIG         H         2     0.06     1.008
         7  opls_140         1       LIG         H         2     0.06     1.008
         8  opls_136         1       LIG         C         3     -0.12    12.011
         9  opls_140         1       LIG         H         3     0.06     1.008
        10  opls_140         1       LIG         H         3     0.06     1.008
        11  opls_136         1       LIG         C         4    -0.12    12.011
        12  opls_140         1       LIG         H         4     0.06     1.008
        13  opls_140         1       LIG         H         4     0.06     1.008
        14  opls_136         1       LIG         C         5    -0.12    12.011
        15  opls_140         1       LIG         H         5     0.06     1.008
        16  opls_140         1       LIG         H         5     0.06     1.008
        17  opls_136         1       LIG         C         6    -0.12    12.011
        18  opls_140         1       LIG         H         6     0.06     1.008
        19  opls_140         1       LIG         H         6     0.06     1.008
        20  opls_135         1       LIG         C         7    -0.18    12.011
        21  opls_140         1       LIG         H         7     0.06     1.008
        22  opls_140         1       LIG         H         7     0.06     1.008
	23  opls_140         1       LIG         H         7	 0.06     1.008
[ bonds ] 
; i	j  funct
  1	2	1
  1	3	1
  1	4	1	
  1	5	1
  5	6	1
  5	7	1
  5	8	1
  8	9	1
  8	10	1
  8	11	1
  11	12	1
  11	13	1
  11	14	1
  14	15	1
  14	16	1
  14	17	1
  17	18	1
  17	19	1
  17	20	1
  20	21	1
  20	22	1
  20	23	1

[ pairs ]
;  ai    aj funct            c0            c1            c2            c3
    1     9     1 
    1    10     1 
    1    11     1 
    2     6     1 
    2     7     1 
    2     8     1 
    3     6     1 
    3     7     1 
    3     8     1 
    4     6     1 
    4     7     1 
    4     8     1 
    5    12     1 
    5    13     1 
    5    14     1 
    6     9     1 
    6    10     1 
    6    11     1 
    7     9     1 
    7    10     1 
    7    11     1 
    8    15     1 
    8    16     1 
    8    17     1 
    9    12     1 
    9    13     1 
    9	 14	1    
    10   12     1 
    10   13     1 
    10   14     1
    11   18     1 
    11   19     1 
    11   20     1 
    12   15     1 
    12   16     1 
    12   17     1    
    13   15     1 
    13   16     1 
    13   17     1    
    14   21     1 
    14   22     1 
    14   23     1 
    15   18     1 
    15   19     1 
    15   20     1
    16   18     1 
    16   19     1 
    16   20     1    
    18   21     1 
    18   22     1
    18   23     1 
    19   21     1 
    19   22     1
    19   23     1 
    
[ angles ]
; i	j	k	funct
2	1	3	1
2	1	4	1
2	1	5	1
3	1	4	1
3	1	5	1
4       1       5	1
1       5	6	1
1	5	7	1
1	5	8	1
6	5	7	1
6	5	8	1
7	5	8	1
5       8       9      	1
5	8	10      1
5	8	11      1
9       8	10      1
9       8	11      1
10      8	11	1
8	11	12      1
8	11	13      1
8	11	14      1
12	11	13      1
12	11	14      1
13	11	14      1     
11	14	15	1 
11	14	16      1
11	14	17      1
15	14      16      1
15	14	17      1
16	14	17      1
14	17	18      1
14	17	19	1
14	17	20	1
18      17      19	1
18      17      20	1
19      17      20	1
17	20	21	1
17	20	22	1
17	20	23	1
21	20	22	1
21	20	23	1
22	20	23	1
	
[ dihedrals ]
; i	j	k 	l	funct
2 	1	5	6	3
2	1	5	7	3
2	1	5	8	3
3 	1	5	6	3
3	1	5	7	3
3	1	5	8	3
4 	1	5	6	3
4	1	5	7	3
4	1	5	8	3
1	5	8	9	3
1 	5	8	10	3
1	5	8	11	3
6 	5	8	9	3
6 	5	8	10	3
6 	5	8	11	3
7 	5	8	9	3
7 	5	8	10	3
7 	5	8	11	3
5	8	11	12	3
5	8	11	13	3
5	8	11	14	3
9	8	11	12	3
9	8	11	13	3
9	8	11	14	3
10	8	11	12	3
10	8	11	13	3
10	8	11	14	3
8	11	14	15	3
8	11	14	16	3
8	11	14	17 	3
12	11	14	15	3
12	11	14	16	3
12	11	14	17	3
13	11	14	15	3
13	11	14	16	3
13	11	14	17	3
11	14	17	18	3
11	14	17	19	3
11	14	17	20	3
15	14	17	18	3
15	14	17	19	3
15	14	17	20	3
16	14	17	18	3
16	14	17	19	3
16	14	17	20	3
14	17	20	21	3
14	17	20	22	3
14	17	20	23	3
18	17	20	21	3
18	17	20	22	3
18	17	20	23	3	
19	17	20	21	3
19	17	20	22	3
19	17	20	23	3




